546
Lattice="30.14648206592351 0.0 -0.0 -15.073241032961755 26.10760713114141 -0.0 -0.0 0.0 19.999990157549437" Properties=species:S:1:pos:R:3:atom_types:I:1:forces:R:3 energy=-441308.2729150114 free_energy=-441308.2729150114 pbc="T T T"
Mo      -0.80702994       1.63772538      -3.28427668        0      -0.00432228      -0.00230191      -0.00746751
S        1.02074784       1.52717110      -4.84795530        2      -0.00389548       0.00295883      -0.00046126
S        1.01020880       1.50749446      -1.71653211        1      -0.00455317       0.00229728      -0.01367210
S       -1.62716362       3.29209060      -4.82729487        2      -0.00833320      -0.00402918       0.00016866
S       -1.60384801       3.25659264      -1.69566050        1      -0.00786475      -0.00503551      -0.01302135
Mo       4.65514597       1.28522651      -3.24324318        0      -0.00276265       0.01002216      -0.00603001
S        6.50500800       1.18614304      -4.77392315        2      -0.00236207       0.01108094       0.00135343
S        6.44670156       1.16758503      -1.64122483        1      -0.00166839       0.01082717      -0.01296504
Mo       2.02645509       3.03750187      -3.26303695        0      -0.00666867       0.00417367      -0.00643110
S        3.86651535       2.93695311      -4.80753842        2      -0.00625087       0.00785318       0.00060755
S        3.82885128       2.90312783      -1.67549549        1      -0.00609737       0.00848361      -0.01283675
Mo      -0.60674335       4.79206686      -3.24418291        0      -0.00983576      -0.00277422      -0.00618556
S        1.21989252       4.69827077      -4.80843309        2      -0.01021576       0.00135883       0.00037384
S        1.21397065       4.64953491      -1.67653030        1      -0.00967378       0.00203271      -0.01284446
Mo      -3.25188096       6.53602842      -3.19526239        0      -0.00961798      -0.00528027      -0.00610740
S       -1.43526700       6.45200974      -4.77543483        2      -0.01064102      -0.00389676       0.00081530
S       -1.41290566       6.39680804      -1.64297969        1      -0.01008412      -0.00270069      -0.01303446
S       -4.09993300       8.18371692      -4.72545259        2      -0.00808406      -0.00441356       0.00079524
S       -4.06455190       8.13644844      -1.59170267        1      -0.00710576      -0.00374944      -0.01351963
Mo      10.11219823       0.99077622      -3.13796491        0      -0.00022317       0.00778376      -0.00570142
S       11.95301709       0.92099438      -4.67802085        2       0.00209596       0.00531498       0.00461719
S       11.91403235       0.90712222      -1.54287522        1      -0.00258164       0.00300356      -0.01023505
Mo       7.47940393       2.70901370      -3.17899144        0      -0.00190982       0.00954008      -0.00564820
S        9.32543929       2.62811933      -4.71149861        2      -0.00052630       0.00929505       0.00257213
S        9.27267966       2.60300534      -1.57666810        1      -0.00211936       0.00602487      -0.01208624
Mo       4.84929856       4.44834703      -3.20867693        0      -0.00584206       0.00697643      -0.00591585
S        6.69229994       4.35897007      -4.74494292        2      -0.00420530       0.00875486       0.00227748
S        6.64418895       4.32161493      -1.61112323        1      -0.00451357       0.00790486      -0.01251844
Mo       2.21627871       6.19843938      -3.21050709        0      -0.00927731       0.00173627      -0.00620664
S        4.04978598       6.10833939      -4.76039570        2      -0.00817996       0.00483085       0.00122924
S        4.02358940       6.05881469      -1.62729430        1      -0.00775728       0.00557955      -0.01301904
Mo      -0.42689274       7.94530096      -3.18296637        0      -0.00957890      -0.00205508      -0.00651852
S        1.39697162       7.86058241      -4.74874614        2      -0.00943158       0.00039955       0.00081813
S        1.39749014       7.80383695      -1.61562416        1      -0.00898292       0.00118271      -0.01311623
Mo      -3.08654852       9.67814331      -3.14086763        0      -0.00671984      -0.00298531      -0.00645295
S       -1.26633790       9.59848199      -4.71620071        2      -0.00690290      -0.00086466       0.00079319
S       -1.24849853       9.54561859      -1.58233842        1      -0.00710293      -0.00224277      -0.01297764
Mo      -5.76377047      11.39480224      -3.10450413        0      -0.00284621      -0.00185017      -0.00241247
S       -3.94037517      11.31389928      -4.68038945        2      -0.00432434       0.00067723       0.00345351
S       -3.92081872      11.27728986      -1.54574580        1      -0.00197384      -0.00375844      -0.01061531
S       -6.62250521      13.01004417      -4.66166377        2      -0.00199312       0.00051705       0.00675737
S       -6.61499224      13.00001740      -1.52652559        1      -0.00012804      -0.00171287      -0.00790074
Mo      15.57271220       0.76875381      -3.09162188        0       0.00018229       0.00061115       0.00002751
S       17.38424181       0.70742020      -4.67018094        2      -0.00080990      -0.00127707       0.00572559
S       17.40620326       0.70442930      -1.53478922        1       0.00087597      -0.00246003      -0.00901300
Mo      12.93221115       2.45476949      -3.09329621        0      -0.00018461       0.00309021      -0.00003291
S       14.75755158       2.39564046      -4.65326872        2       0.00042192       0.00234665       0.00868210
S       14.75102770       2.38172404      -1.51691405        1      -0.00056693       0.00055664      -0.00668050
Mo      10.29374344       4.15568872      -3.11516687        0      -0.00070088       0.00550962      -0.00203683
S       12.12893116       4.08751624      -4.65978949        2       0.00131075       0.00453131       0.00813394
S       12.09821942       4.06503137      -1.52297770        1      -0.00159203       0.00226720      -0.00747497
Mo       7.65827537       5.87836320      -3.14284228        0      -0.00234382       0.00599298      -0.00393070
S        9.49578408       5.79737741      -4.68214617        2       0.00021752       0.00568702       0.00593668
S        9.45553359       5.76797933      -1.54582763        1      -0.00278862       0.00302825      -0.00913256
Mo       5.02295314       7.61840058      -3.15784129        0      -0.00502265       0.00356741      -0.00560629
S        6.85551691       7.52965166      -4.70336963        2      -0.00251402       0.00469715       0.00336506
S        6.82386258       7.49304503      -1.56830640        1      -0.00457811       0.00329127      -0.01119047
Mo       2.38177065       9.36286939      -3.14963673        0      -0.00626064       0.00030416      -0.00592382
S        4.20649997       9.27466430      -4.70738939        2      -0.00495143       0.00270994       0.00175118
S        4.19490521       9.23190558      -1.57303730        1      -0.00553996       0.00130998      -0.01216235
Mo      -0.27214736      11.09811433      -3.12398003        0      -0.00495400      -0.00154575      -0.00446806
S        1.54847109      11.01515476      -4.69125447        2      -0.00483419       0.00153469       0.00250014
S        1.55443001      10.97172588      -1.55665555        1      -0.00436445      -0.00149330      -0.01100638
Mo      -2.94243840      12.81754089      -3.09863506        0      -0.00256519      -0.00122230      -0.00153983
S       -1.11889215      12.73716280      -4.66758313        2      -0.00328587       0.00133517       0.00519800
S       -1.10869298      12.70232544      -1.53240896        1      -0.00157352      -0.00250065      -0.00856923
Mo      -5.62581381      14.52450617      -3.09206888        0      -0.00078779       0.00030005      -0.00032190
S       -3.79401081      14.43845707      -4.65551355        2      -0.00133543       0.00109786       0.00700600
S       -3.79453365      14.42187506      -1.52017018        1      -0.00046280      -0.00123156      -0.00700857
Mo      -8.31134559      16.23077383      -3.11338006        0       0.00197281       0.00212913      -0.00320128
S       -6.47107642      16.12940819      -4.66789326        2       0.00227414       0.00156632       0.00537438
S       -6.48976667      16.13721683      -1.53292542        1       0.00045894       0.00179334      -0.00870293
S       -9.14445886      17.82738763      -4.70738910        2       0.00482390       0.00293337       0.00175169
S       -9.17569094      17.85880814      -1.57303736        1       0.00390705       0.00414205      -0.01216132
Mo      21.03727707       0.54087684      -3.15784097        0      -0.00057824      -0.00613722      -0.00560423
S       22.83161161       0.45312040      -4.76039564        2      -0.00009410      -0.00950228       0.00123002
S       22.88760033       0.45519591      -1.62729418        1      -0.00095234      -0.00951051      -0.01301827
Mo      18.39713940       2.24000682      -3.10737505        0      -0.00092225      -0.00247674      -0.00173395
S       20.19785407       2.17229740      -4.70336953        2      -0.00281022      -0.00452977       0.00336635
S       20.24538314       2.16318753      -1.56830619        1      -0.00056204      -0.00561375      -0.01118918
Mo      15.75061911       3.92762595      -3.07683249        0      -0.00046048       0.00072557       0.00191856
S       17.56240891       3.86787830      -4.65699034        2      -0.00189233      -0.00005554       0.00841394
S       17.58798591       3.85355100      -1.52004729        1      -0.00001723      -0.00220883      -0.00724203
Mo      13.10214304       5.61914800      -3.07267055        0      -0.00022600       0.00210213       0.00238984
S       14.92453089       5.55405044      -4.63633728        2      -0.00020826       0.00227414       0.01123958
S       14.92322869       5.53905104      -1.49811506        1      -0.00071014       0.00001286      -0.00474034
Mo      10.45646136       7.32730338      -3.08820971        0      -0.00057953       0.00244563       0.00102021
S       12.28463247       7.24912054      -4.64010452        2       0.00096314       0.00287192       0.01106037
S       12.26361444       7.23460582      -1.50182596        1      -0.00104747       0.00090194      -0.00513706
Mo       7.81451068       9.05526252      -3.10737501        0      -0.00168510       0.00203786      -0.00173447
S        9.64165387       8.96422520      -4.65699014        2       0.00089526       0.00166787       0.00841445
S        9.61645711       8.94923806      -1.52004714        1      -0.00190673       0.00112049      -0.00724203
Mo       5.17265106      10.79446884      -3.11338000        0      -0.00283104       0.00064380      -0.00320128
S        6.99370021      10.69875160      -4.67018067        2      -0.00070294       0.00134186       0.00572585
S        6.98012868      10.68122712      -1.53478899        1      -0.00257033       0.00047257      -0.00901275
Mo       2.52450088      12.53024603      -3.10195843        0      -0.00300331      -0.00060344      -0.00184914
S        4.34030177      12.43887235      -4.66789313        2      -0.00249371       0.00118759       0.00537541
S        4.34288448      12.41878087      -1.53292533        1      -0.00178280      -0.00049879      -0.00870241
Mo      -0.13541182      14.25137864      -3.08513793        0      -0.00213016      -0.00042320       0.00011853
S        1.68190646      14.16703318      -4.65408676        2      -0.00274414       0.00051653       0.00675197
S        1.69081427      14.14847757      -1.51848519        1      -0.00103384      -0.00091351      -0.00678437
Mo      -2.80723333      15.95685625      -3.08091477        0      -0.00093048       0.00067646       0.00050368
S       -0.98081079      15.87507412      -4.64442728        2      -0.00130946       0.00072197       0.00754233
S       -0.98108371      15.86401524      -1.50847001        1      -0.00077853       0.00002623      -0.00600275
Mo      -5.48404310      17.65625062      -3.10195849        0       0.00097985       0.00290175      -0.00184965
S       -3.64524673      17.56756578      -4.65408691        2       0.00182034       0.00211885       0.00675120
S       -3.66576984      17.56912869      -1.51848525        1      -0.00027331       0.00135163      -0.00678488
Mo      -8.15570640      19.36354716      -3.14963658        0       0.00339566       0.00526922      -0.00592382
S       -6.30813592      19.25906242      -4.69125454        2       0.00374713       0.00341802       0.00249963
S       -6.34872471      19.27561651      -1.55665552        1       0.00089114       0.00452514      -0.01100612
Mo     -10.81343750      21.08908229      -3.21050702        0       0.00614391       0.00716515      -0.00620639
S       -8.96432571      20.96755189      -4.74874598        2       0.00506276       0.00796733       0.00081838
S       -9.01372838      20.99547498      -1.61562408        1       0.00551707       0.00718752      -0.01311597
S      -11.61442784      22.70206252      -4.80843319        2       0.00628738       0.00816608       0.00037384
S      -11.65367420      22.73155823      -1.67653007        1       0.00659899       0.00735978      -0.01284395
Mo      26.50270077       0.23628318      -3.26303728        0      -0.00028025      -0.00786500      -0.00643264
S       28.31353904       0.12047963      -4.84795564        2      -0.00061424      -0.00485707      -0.00046254
S       28.33584930       0.12119120      -1.71653238        1       0.00028668      -0.00509567      -0.01367364
Mo      23.86945114       1.97551494      -3.20867696        0      -0.00312081      -0.00854995      -0.00591559
S       25.66974782       1.88009677      -4.80753833        2      -0.00367616      -0.00934262       0.00060627
S       25.71787437       1.86439069      -1.67549562        1      -0.00429786      -0.00952542      -0.01283803
Mo      21.22653231       3.69315161      -3.14284218        0      -0.00401941      -0.00502908      -0.00392942
S       23.02535276       3.61628946      -4.74494303        2      -0.00548056      -0.00802210       0.00227800
S       23.08175928       3.59330116      -1.61112325        1      -0.00458968      -0.00786398      -0.01251793
Mo      18.57262036       5.39198281      -3.08820974        0      -0.00183191      -0.00172161       0.00102073
S       20.37791393       5.32497339      -4.68214621        2      -0.00503525      -0.00265698       0.00593745
S       20.42349832       5.30481494      -1.54582782        1      -0.00123002      -0.00393019      -0.00913307
Mo      15.91202740       7.08437007      -3.06040744        0      -0.00102381       0.00058595       0.00503936
S       17.72624273       7.01431731      -4.64010387        2      -0.00297734      -0.00059444       0.01106320
S       17.74932229       7.00337257      -1.50182583        1      -0.00026457      -0.00135189      -0.00513912
Mo      13.25240412       8.78525192      -3.06040830        0       0.00099682       0.00060087       0.00504733
S       15.07321650       8.70258226      -4.62602911        2      -0.00001311       0.00002288       0.01269508
S       15.07321586       8.70258335      -1.48706801        1       0.00000309      -0.00000591      -0.00348642
Mo      10.59929202      10.50340676      -3.07683243        0       0.00085361       0.00004037       0.00191804
S       12.42086069      10.40560843      -4.63633798        2       0.00205997      -0.00094617       0.01123418
S       12.40852180      10.41423548      -1.49811503        1       0.00035610       0.00061835      -0.00473649
Mo       7.95258218      12.23691442      -3.09162164        0       0.00043760      -0.00046280       0.00002803
S        9.76908780      12.12942073      -4.65326876        2       0.00181906      -0.00153752       0.00868082
S        9.76029780      12.14202886      -1.51691399        1       0.00076465       0.00021443      -0.00667973
Mo       5.30755681      13.97334173      -3.09206861        0       0.00013447      -0.00083124      -0.00032113
S        7.11746539      13.86741308      -4.66166356        2       0.00054893      -0.00198361       0.00675763
S        7.12239258      13.87893297      -1.52652560        1       0.00154832       0.00074665      -0.00790049
Mo       2.65781498      15.69812874      -3.08091448        0      -0.00012007      -0.00114414       0.00050496
S        4.46617604      15.60275451      -4.65551316        2      -0.00028282      -0.00170464       0.00700677
S        4.48079830      15.61059293      -1.52016999        1       0.00129892       0.00021649      -0.00700728
Mo      -0.00002093      17.40511578      -3.07346694        0       0.00000026      -0.00000077       0.00072145
S        1.81542884      17.32074789      -4.64442712        2       0.00002982      -0.00149587       0.00754310
S        1.82514271      17.32604110      -1.50846978        1       0.00036587      -0.00068726      -0.00600198
Mo      -2.66354206      19.09923650      -3.08513785        0       0.00069960       0.00205585       0.00011853
S       -0.83468072      19.01952522      -4.64442720        2       0.00128144       0.00077210       0.00754259
S       -0.84412186      19.02529106      -1.50846998        1       0.00041292       0.00065975      -0.00600250
Mo      -5.32598129      20.79428473      -3.12398012        0       0.00113951       0.00506147      -0.00446883
S       -3.48315111      20.70806303      -4.66758317        2       0.00280070       0.00217772       0.00519800
S       -3.51842101      20.71664963      -1.53240876        1      -0.00137837       0.00261250      -0.00856872
Mo      -7.97902535      22.50470519      -3.18296629        0       0.00301050       0.00932205      -0.00651852
S       -6.12760575      22.40509500      -4.71620041        2       0.00270326       0.00640847       0.00079267
S       -6.18230652      22.41607742      -1.58233872        1       0.00161028       0.00727082      -0.01297816
Mo     -10.61988063      24.23707719      -3.24418274        0       0.00251737       0.00990338      -0.00618505
S       -8.76806629      24.12462878      -4.77543499        2       0.00194710       0.01116244       0.00081504
S       -8.82705302      24.13286346      -1.64297941        1       0.00270480       0.01008207      -0.01303395
Mo     -13.25147680      25.98770112      -3.28427635        0       0.00017072       0.00489230      -0.00746700
S      -11.40868774      25.87077539      -4.82729458        2       0.00068006       0.00922975       0.00016995
S      -11.45108724      25.86833190      -1.69566031        1      -0.00042552       0.00932719      -0.01301981
Mo      26.70587026       3.38893404      -3.24324337        0      -0.00729833      -0.00740606      -0.00603104
Mo      24.06070518       5.12291955      -3.17899144        0      -0.00730810      -0.00642622      -0.00564794
S       25.86674777       5.04050373      -4.77392299        2      -0.00841625      -0.00758784       0.00135369
S       25.91197291       4.99928701      -1.64122495        1      -0.00854275      -0.00686073      -0.01296582
Mo      21.40067814       6.83687163      -3.11516695        0      -0.00442178      -0.00336300      -0.00203734
S       23.20774377       6.76207992      -4.71149874        2      -0.00778787      -0.00510544       0.00257213
S       23.25587309       6.72894547      -1.57666798        1      -0.00415953      -0.00484987      -0.01208598
Mo      18.72908578       8.53728784      -3.07267046        0      -0.00170670      -0.00124339       0.00239035
S       20.54212370       8.46027759      -4.65978953        2      -0.00457888      -0.00113026       0.00813446
S       20.57695264       8.44492311      -1.52297800        1      -0.00116600      -0.00251197      -0.00747548
Mo      16.05522529      10.23811209      -3.06040817        0       0.00001003      -0.00115802       0.00504733
S       17.87426830      10.14807086      -4.63633768        2      -0.00185711      -0.00131281       0.01123726
S       17.88790898      10.15444312      -1.49811496        1       0.00035070      -0.00061732      -0.00473777
Mo      13.38843088      11.95129343      -3.07267079        0       0.00192936      -0.00085232       0.00238855
S       15.20878356      11.84429183      -4.64010464        2       0.00200263      -0.00226437       0.01105780
S       15.20672231      11.86975166      -1.50182587        1       0.00130098       0.00046126      -0.00513578
Mo      10.73296462      13.68064784      -3.09329660        0       0.00276676      -0.00138377      -0.00003368
S       12.54860460      13.55993586      -4.65978978        2       0.00326762      -0.00339797       0.00813266
S       12.54448776      13.59777451      -1.52297807        1       0.00275751       0.00024657      -0.00747574
Mo       8.08693802      15.41871984      -3.10450431        0       0.00302490      -0.00153829      -0.00241298
S        9.89427335      15.29554338      -4.67802114        2       0.00355378      -0.00447012       0.00461642
S        9.90175189      15.33623962      -1.54287555        1       0.00389034       0.00073431      -0.01023556
Mo       5.44414406      17.15069584      -3.09863513        0       0.00234022      -0.00160874      -0.00153983
S        7.24530362      17.03827832      -4.68038978        2       0.00157429      -0.00408188       0.00345325
S        7.26723073      17.07351802      -1.54574580        1       0.00424078       0.00017046      -0.01061531
Mo       2.79889060      18.86473304      -3.08513782        0       0.00143005      -0.00163214       0.00011878
S        4.60197973      18.77012262      -4.66758338        2       0.00048414      -0.00351161       0.00519774
S        4.62705048      18.79637329      -1.53240909        1       0.00295111      -0.00011159      -0.00856897
Mo       0.14935511      20.56036302      -3.08091456        0       0.00105055       0.00046820       0.00050445
S        1.96327688      20.48074981      -4.65408662        2       0.00092380      -0.00263307       0.00675197
S        1.97489218      20.49774232      -1.51848511        1       0.00130689      -0.00043657      -0.00678437
Mo      -2.50176919      22.24711179      -3.09863488        0       0.00022343       0.00283284      -0.00153906
S       -0.67222865      22.17413666      -4.65551330        2       0.00161722       0.00060704       0.00700677
S       -0.68632816      22.18288055      -1.52016999        1      -0.00083664       0.00101687      -0.00700728
Mo      -5.14851175      23.94161323      -3.14086765        0       0.00077493       0.00731067      -0.00645373
S       -3.30499186      23.86317073      -4.68038950        2       0.00274877       0.00340645       0.00345376
S       -3.34647539      23.86454032      -1.54574557        1      -0.00226900       0.00358900      -0.01061480
Mo      -7.78699709      25.65585284      -3.19526236        0       0.00023706       0.01096781      -0.00610766
S       -5.93603085      25.56644277      -4.72545234        2       0.00022034       0.00920583       0.00079473
S       -5.99465701      25.55943614      -1.59170284        1       0.00030648       0.00802621      -0.01352015
Mo      24.23234532       8.26210500      -3.13796488        0      -0.00663036      -0.00408651      -0.00570116
Mo      21.55448386       9.97231202      -3.09329627        0      -0.00258319      -0.00170387      -0.00003265
S       23.37236908       9.89119181      -4.67802083        2      -0.00565051      -0.00084204       0.00461744
S       23.40387569       9.86436684      -1.54287547        1      -0.00130946      -0.00373658      -0.01023556
Mo      18.86974860      11.67669638      -3.07683237        0      -0.00039492      -0.00075950       0.00191830
S       20.69302016      11.58266789      -4.65326864        2      -0.00224277      -0.00080630       0.00868210
S       20.70833417      11.58397633      -1.51691385        1      -0.00019797      -0.00076825      -0.00667947
Mo      16.19057781      13.38844286      -3.08820992        0       0.00240681      -0.00071965       0.00101970
S       18.01559682      13.27562565      -4.65699034        2       0.00099553      -0.00161028       0.00841316
S       18.01521627      13.30494055      -1.52004720        1       0.00192190       0.00109040      -0.00724228
Mo      13.52523858      15.11516787      -3.11516685        0       0.00512369      -0.00214790      -0.00203657
S       15.34596237      14.98537715      -4.68214644        2       0.00481773      -0.00303030       0.00593642
S       15.34062871      15.03493318      -1.54582763        1       0.00401863       0.00090066      -0.00913204
Mo      10.87511662      16.85484688      -3.13796474        0       0.00685482      -0.00369956      -0.00570014
S       12.68647726      16.71752872      -4.71149837        2       0.00831546      -0.00419193       0.00257316
S       12.69110793      16.77577642      -1.57666814        1       0.00628043      -0.00117859      -0.01208470
Mo       8.23499746      18.59559076      -3.14086749        0       0.00594593      -0.00432768      -0.00645295
S       10.03590118      18.46518740      -4.72545220        2       0.00786552      -0.00479485       0.00079601
S       10.05914624      18.51946244      -1.59170279        1       0.00680082      -0.00428037      -0.01351860
Mo       5.59806585      20.32294826      -3.12398007        0       0.00381577      -0.00351855      -0.00446858
S        7.39388122      20.21176976      -4.71620039        2       0.00420170      -0.00554716       0.00079344
S        7.43074250      20.25365078      -1.58233853        1       0.00549419      -0.00503216      -0.01297713
Mo       2.95947918      22.02885145      -3.10195843        0       0.00202397      -0.00229831      -0.00184939
S        4.75960208      21.94113002      -4.69125445        2       0.00108809      -0.00495503       0.00250040
S        4.79423250      21.96800371      -1.55665542        1       0.00347485      -0.00303596      -0.01100561
Mo       0.31819366      23.71750028      -3.09206875        0       0.00065280       0.00053222      -0.00032165
S        2.13071094      23.64706862      -4.66789318        2       0.00021906      -0.00275082       0.00537541
S        2.14681863      23.65935117      -1.53292555        1       0.00132360      -0.00129275      -0.00870293
Mo      -2.32323103      25.40182645      -3.10450407        0      -0.00017998       0.00339051      -0.00241221
S       -0.49502369      25.33789108      -4.66166367        2       0.00144290       0.00146681       0.00675763
S       -0.50746383      25.33639826      -1.52652568        1      -0.00142028       0.00096751      -0.00790049
Mo      21.69436540      13.10206062      -3.09162175        0      -0.00062066      -0.00014681       0.00002828
Mo      19.00800974      14.81245945      -3.10737507        0       0.00260658       0.00043940      -0.00173447
S       20.84171746      14.70155767      -4.67018089        2       0.00151181      -0.00006273       0.00572482
S       20.83332736      14.72207323      -1.53478907        1       0.00169307       0.00198952      -0.00901249
Mo      16.33485252      16.53621313      -3.14284213        0       0.00636399      -0.00096673      -0.00392942
S       18.16628983      16.40577809      -4.70336941        2       0.00532655      -0.00017098       0.00336583
S       18.15041502      16.45149467      -1.56830643        1       0.00514195       0.00231836      -0.01118944
Mo      13.67955092      18.27579519      -3.17899128        0       0.00921920      -0.00311669      -0.00564717
S       15.50200739      18.13246881      -4.74494278        2       0.00968663      -0.00073585       0.00227825
S       15.49371192      18.19281211      -1.61112318        1       0.00910505      -0.00004422      -0.01251742
Mo      11.03881499      20.02346654      -3.19526222        0       0.00938221      -0.00569011      -0.00610688
S       12.84790427      19.88108171      -4.77392305        2       0.01077935      -0.00349619       0.00135369
S       12.86098563      19.94085630      -1.64122454        1       0.01021319      -0.00396875      -0.01296453
Mo       8.40585516      21.76534153      -3.18296617        0       0.00656994      -0.00726979      -0.00651775
S       10.20327027      21.63870903      -4.77543485        2       0.00869547      -0.00726902       0.00081504
S       10.23989569      21.68567626      -1.64297927        1       0.00738164      -0.00738395      -0.01303369
Mo       5.77387312      23.48893069      -3.14963635        0       0.00286729      -0.00557672      -0.00592279
S        7.56729120      23.38721315      -4.74874599        2       0.00437036      -0.00837023       0.00081915
S        7.61617541      23.41603565      -1.61562402        1       0.00346868      -0.00837305      -0.01311520
Mo       3.13863131      25.19010550      -3.11338000        0       0.00085823      -0.00277242      -0.00320102
S        4.93789652      25.11329475      -4.70738908        2       0.00012984      -0.00564640       0.00175272
S        4.98072351      25.12463247      -1.57303706        1       0.00163471      -0.00545640      -0.01216055
Mo      19.15943015      17.94845053      -3.15784111        0       0.00560321       0.00256596      -0.00560526
Mo      16.50091038      19.68386644      -3.20867678        0       0.00896467       0.00157043      -0.00591585
S       18.33826244      19.54626854      -4.76039565        2       0.00827561       0.00466758       0.00122976
S       18.30847050      19.59371768      -1.62729408        1       0.00871244       0.00392787      -0.01301801
Mo      13.85864406      21.43356764      -3.24324323        0       0.01006355      -0.00261970      -0.00603155