LAMMPS data file via write_data, version 27 Jun 2024, timestep = 170000, units = metal

159 atoms
6 atom types

0 85.32567 xlo xhi
0 2.84229537522053 ylo yhi
0 100 zlo zhi
-1.641 0 0 xy xz yz

Masses

1 95.95
2 32.06
3 32.06
4 183.84
5 78.971
6 78.971

Atoms # atomic

101 5 6.068775268053325 0.5327325613042171 6.256570630171948 2 1 0
100 4 4.404015355715681 1.4655404114927224 7.882341503604788 2 0 0
63 3 83.3199743868108 1.6817349273693656 3.041321734258018 -4 -1 0
64 1 -0.3947552331885994 2.664428269706492 1.5470347306241405 -3 -2 0
66 3 1.163365986006572 1.6767322006619065 3.1169633638417853 -3 -1 0
98 5 2.7938348148115026 0.5362296822168051 6.198977223327483 2 1 0
97 4 1.1236888326615218 1.4631114401629568 7.821430464626003 2 0 0
62 2 83.39940141315849 1.7294453713643778 99.94775296463595 -4 -1 -1
65 2 1.2292648862804367 1.717936298988515 0.023710792724940255 -3 -1 0
67 1 2.7665198574704526 2.6595250357306073 1.6149865257592506 -3 -2 0
69 3 4.335572470058405 1.6803586673415154 3.177629458992187 -3 -1 0
103 4 7.686723321031455 1.4603333627855832 7.930969845473404 2 0 0
104 5 9.346851113924936 0.5236419567094174 6.300213701642127 2 1 0
106 4 10.972700820382087 1.451919659021985 7.968221789955182 2 0 0
107 5 12.625773947541479 0.5114616708588282 6.3331980988271255 2 1 0
109 4 14.263120712551826 1.4388704341442529 7.990224705461892 2 0 0
110 5 15.91194719115163 0.4912276398285056 6.351483562039449 2 1 0
70 1 5.9263376809987 2.6645085955151235 1.6583161608556087 -3 -2 0
72 3 7.506361367242795 1.6932509188623581 3.2142686315811337 -3 -1 0
73 1 9.082879026481693 2.676698530763501 1.680688913814463 -3 -2 0
75 3 10.670778310971645 1.7133374385907114 3.2298970017004978 -3 -1 0
76 1 12.23129017628054 2.700260062119833 1.6849430750721546 -3 -2 0
78 3 13.82320531312317 1.73982374774329 3.2317337654146403 -3 -1 0
112 4 17.557945110797114 1.4190465963030976 8.001846298423553 2 0 0
113 5 19.20436712489691 0.4703160037195094 6.360191999850871 2 1 0
115 4 20.856286711873015 1.395188671055292 8.00724799786465 2 0 0
116 5 22.499798522519033 0.4421833536131636 6.362473074690846 2 1 0
118 4 24.153424771094294 1.3710433846776493 8.005690010991916 2 0 0
79 1 15.37568200683162 2.7333292724171265 1.6818440701394988 -3 -2 0
81 3 16.966158708949582 1.7753280962354336 3.227216666830607 -3 -1 0
1 1 18.516868026860024 2.770933794814288 1.6791760729621945 -4 -2 0
3 3 20.102898991141494 1.8138893701132024 3.2267905941637394 -4 -1 0
4 1 21.653719189510017 2.8141182764465893 1.6815909735777341 -4 -2 0
6 3 23.241113361427505 1.8576286622899179 3.2298734386652623 -4 -1 0
119 5 25.796293729660924 0.41701119746952287 6.360024389972666 2 1 0
121 4 27.449629551318754 1.3486223346410418 8.00190352249597 2 0 0
122 5 29.090841434037035 0.39330653373845137 6.35596426289458 2 1 0
125 5 32.38046825841496 0.37201943876875065 6.346388733927904 2 1 0
124 4 30.74355526763399 1.3287794229319358 7.994499484130009 2 0 0
7 1 26.434199645549636 0.016012418279778926 1.6866812561430529 -4 -1 0
9 3 26.378786724128435 1.9011546059906435 3.234761145448529 -4 -1 0
10 1 29.573440033705314 0.05985116122748426 1.6919702501943796 -4 -1 0
12 3 29.518404698249405 1.9467485560246487 3.2406544632924126 -4 -1 0
13 1 32.71796774626821 0.09741290637996763 1.69747262254187 -4 -1 0
127 4 34.03292032326153 1.311971244891613 7.9797183508631315 2 0 0
128 5 35.66247088836491 0.3534564883322453 6.328103847788073 2 1 0
130 4 37.31704012890726 1.3009140629116611 7.956269332512271 2 0 0
131 5 38.93922887250331 0.33915505238341614 6.300984516903216 2 1 0
134 5 42.20903445476397 0.33173161401915024 6.259862382027549 2 1 0
133 4 40.59536185341647 1.2956325650525238 7.919565484001195 2 0 0
15 3 32.66898410288175 1.9852406858361706 3.2443961272064823 -4 -1 0
16 1 35.87015474354062 0.12393744943292435 1.6951103864589652 -4 -1 0
18 3 35.82825163319407 2.012945921890466 3.2373955956485263 -4 -1 0
19 1 39.03090024449036 0.1413696565631067 1.6807002957044193 -4 -1 0
21 3 38.99818173076382 2.0319427924391547 3.2182799561617035 -4 -1 0
22 1 42.199612720012304 0.1466136144003636 1.650589437354606 -4 -1 0
136 4 43.86907627679983 1.2965027670687195 7.8698797770882445 2 0 0
137 5 45.47677509551375 0.3295681085610517 6.2068146500694565 2 1 0
140 5 48.745450888790735 0.33353115154276086 6.141029748902796 2 1 0
24 3 42.17532530501873 2.0400388750900693 3.182129537851079 -4 -1 0
139 4 47.14283960240491 1.301403195749917 7.807652659279174 2 0 0
142 4 50.41370663372933 1.3123643626477095 7.736587819978922 2 0 0
25 1 45.3720917675909 0.14123972497287127 1.6044101324323163 -4 -1 0
27 3 45.35456640738395 2.03626679685656 3.1318485055884056 -4 -1 0
26 2 45.29694992174673 2.0014927467748165 0.03978456509777868 -4 -1 0
28 1 48.545871969569234 0.1302340034608796 1.5454370323926503 -4 -1 0
30 3 48.534652507907275 2.027189766092223 3.069001787118922 -4 -1 0
29 2 48.46568330970312 1.9856829889497072 99.97738358777922 -4 -1 -1
143 5 52.01332990003344 0.34275188043517185 6.067992543647937 2 1 0
145 4 53.68512269318674 1.3247066061453103 7.661427052563628 2 0 0
146 5 55.28443077962026 0.35791883163803406 5.99245025128004 2 1 0
149 5 58.56063043157686 0.3801830776996077 5.921929966785421 2 1 0
31 1 51.72046263683367 0.11475455819949631 1.474714951201418 -4 -1 0
33 3 51.712813041488495 2.0127014981242195 2.9938663415664846 -4 -1 0
32 2 51.63451300272983 1.9656077823992757 99.90313985185475 -4 -1 -1
36 3 54.88668605162043 1.9863006515885175 2.915424267577316 -4 -1 0
34 1 54.89556132850824 0.09056737653431393 1.3951031363728108 -4 -1 0
35 2 54.80934366047061 1.940608740032214 99.82403604699276 -4 -1 -1
148 4 56.95317291269025 1.342711446629788 7.587265640801492 2 0 0
37 1 58.07058153121547 0.06198957969047559 1.3173674402347495 -4 -1 0
39 3 58.05580630079538 1.9543933078544886 2.8389508931113063 -4 -1 0
38 2 57.98668216730382 1.9120194544708358 99.74612758702152 -4 -1 -1
151 4 60.224807373745286 1.3626839979952943 7.526940801710539 2 0 0
152 5 61.84363339849487 0.4058577366516476 5.86722379034812 2 1 0
155 5 65.13299150518105 0.4305492131526527 5.834288758120871 2 1 0
42 3 61.219675760135395 1.9158320241536022 2.773178418799686 -4 -1 0
40 1 61.24389471847214 0.029269224453154868 1.246027391243657 -4 -1 0
41 2 61.16654461713739 1.883179949311167 99.67997476608207 -4 -1 -1
43 1 62.772916596870495 2.8366902586353198 1.192792399865251 -4 -2 0
45 3 64.37473667175901 1.8712633475478113 2.7291076361494846 -4 -1 0
44 2 64.34633673959195 1.8556393926417791 99.63428192850478 -4 -1 -1
157 4 66.77770331681687 1.3971518114045398 7.471695914347206 2 0 0
154 4 63.50076881069139 1.3799013485999871 7.486308883416185 2 0 0
158 5 68.42535440877384 0.4570821932530546 5.8299874478665235 2 1 0
83 5 71.71592519799076 0.48058073111377186 5.85447895362243 1 1 0
86 5 75.0055140568956 0.5009165692716064 5.904176498131665 1 1 0
88 4 76.61298012349096 1.4380328822765003 7.59157535948031 1 0 0
48 3 67.52348454226782 1.82509888480292 2.71457579977284 -4 -1 0
46 1 65.939492544912 2.801072665496181 1.167093780489962 -4 -2 0
47 2 67.53034356216783 1.8303358461487458 99.62007951012357 -4 -1 -1
49 1 69.1068143913466 2.7651704267922352 1.1781537688853532 -4 -2 0
51 3 70.67283094824033 1.7794661981003204 2.7388250135347803 -4 -1 0
50 2 70.71679985242852 1.8057889991870726 99.64413690929469 -4 -1 -1
82 4 70.05576826425091 1.414685346904284 7.486856199788408 1 0 0
85 4 73.33435817544364 1.4272641048687884 7.528687734462125 1 0 0
54 3 73.82394033855071 1.7442324296284752 2.7975486943400694 -4 -1 0
52 1 72.27238581636954 2.736076635353876 1.2272742443893208 -4 -2 0
53 2 73.89600762019177 1.7849940462575284 99.70382319446678 -4 -1 -1
61 1 81.76852073284748 2.673415688382847 1.4680624563063738 -4 -2 0
58 1 78.60594617681181 2.685260763980046 1.3851966065405452 -4 -2 0
60 3 80.15421444305085 1.6927398860735856 2.9585064388866793 -4 -1 0
89 5 78.29247445646874 0.5164544821967654 5.973583809760124 1 1 0
91 4 79.89058094477784 1.4511349737087555 7.668941879528858 1 0 0
55 1 75.43815417457941 2.709046786261458 1.3017983404995284 -4 -2 0
57 3 76.98744290462322 1.7140620279312835 2.87525459498321 -4 -1 0
92 5 81.57120476957301 0.5303209313912927 6.052088323105438 1 1 0
94 4 83.16957562546243 1.4579419322748952 7.748898948466826 1 0 0
95 5 84.84705983471774 0.5346451796943221 6.13103698665821 1 1 0
56 2 77.06812236747523 1.7641150260380303 99.78164141463492 -4 -1 -1
59 2 80.23600849756725 1.7418947338026394 99.86623759891845 -4 -1 -1
102 6 6.019984149060593 0.5021807586023853 9.543667022966495 2 1 0
99 6 2.7326056322513383 0.49840146433633 9.486988351792006 2 1 0
105 6 9.309493964846471 0.5000141913514585 9.588790762728273 2 1 0
108 6 12.603480095436902 0.4950618933289455 9.621236352292382 2 1 0
111 6 15.900739724579395 0.48411988352484653 9.639229643042297 2 1 0
114 6 19.200681658898656 0.4659001680212182 9.648157278575075 2 1 0
117 6 22.501098506368265 0.4437968600021307 9.651446846386856 2 1 0
120 6 25.79973695994244 0.4215795172468333 9.648884698313156 2 1 0
123 6 29.096025231469245 0.3995095751171549 9.644136209873881 2 1 0
126 6 32.39205466913728 0.3827112739546375 9.634037462504686 2 1 0
129 6 35.68552628395714 0.3686716155180567 9.616640056936195 2 1 0
132 6 38.973592278198566 0.36166687464099534 9.590066931209652 2 1 0
135 6 42.25689373556834 0.36150257408803155 9.548202782297576 2 1 0
138 6 45.53674046523189 0.366747637224026 9.493630355048424 2 1 0
141 6 48.815242427970865 0.3756094592238938 9.42845551284755 2 1 0
144 6 52.09049671383329 0.388461288592441 9.355632826286838 2 1 0
147 6 55.35991050897058 0.4007129170630924 9.279509839842516 2 1 0
150 6 58.6235498701034 0.4172171355905808 9.209194986363084 2 1 0
153 6 61.88620735648922 0.43182799763867713 9.154834628017678 2 1 0
156 6 65.15113982358135 0.4415889706282254 9.12249927193542 2 1 0
159 6 68.413081375823 0.4495885305540254 9.118292132293691 2 1 0
84 6 71.67753466915222 0.4595654850623977 9.142311492085616 1 1 0
87 6 74.94586278568856 0.46425621347274076 9.191666631192039 1 1 0
90 6 78.21715626567614 0.47174519870477327 9.260070448987229 1 1 0
93 6 81.49185857461738 0.4813888646618411 9.339119067445033 1 1 0
96 6 84.77391525605793 0.49012865328966476 9.41775637015516 1 1 0
68 2 4.37971824101483 1.7086400913897015 0.08375301900407361 -3 -1 0
71 2 7.528859325393237 1.7094016754856027 0.12033614516251401 -3 -1 0
74 2 10.67405715672462 1.7177587125479605 0.13550127563313197 -3 -1 0
77 2 13.818887940191527 1.7413345072002175 0.1367915452650046 -3 -1 0
80 2 16.96279107792683 1.7740076523322643 0.1338910460465017 -3 -1 0
2 2 20.10590078143037 1.8154304001696029 0.13215212154417516 -4 -1 0
5 2 23.245021445873682 1.858985889588142 0.13641978125346593 -4 -1 0
8 2 26.385258967477508 1.9040301594238962 0.14115099293882677 -4 -1 0
11 2 29.525624415069206 1.9459471860535762 0.14747983152605362 -4 -1 0
17 2 35.81579110478729 2.0028886961653356 0.1450805361685803 -4 -1 0
14 2 32.666763880222625 1.9805520216749366 0.15097849132871066 -4 -1 0
20 2 38.970858919289306 2.0139626521851777 0.1256086749975399 -4 -1 0
23 2 42.13219574543894 2.011739743680897 0.09090330644034324 -4 -1 0

Velocities

101 0.04398282810954638 -0.08887878274334779 0.0568026898283534
100 0.05816409889205507 -0.04852582878758707 0.01672246119967783
63 -0.10546245000719329 0.027565158091923815 0.04838697403103735
64 -0.13334385447025937 0.020626245315383696 0.06065499260327763
66 -0.0299941546287518 0.020740809329800387 0.051968150267048555
98 0.04410745979710623 -0.006864925330046392 0.08901077536565905
97 0.060763247962536224 -0.01827542588917024 0.07144215320814433
62 -0.17432592725745047 -0.007268588230514662 0.09159380875612051
65 -0.15552271572377077 0.02592191825436281 0.06255491872136026
67 -0.13295785044991898 0.05875110528365119 0.019453358906268755
69 -0.08011088023767822 0.02472844950602502 -0.03335243136220325
103 0.06816837067598583 -0.051216183182950285 0.01130028328952648
104 0.028676295508453666 -0.07862357816212347 -0.016761742026055872
106 0.055490403788245685 -0.0444373032742659 -0.04017020029612937
107 0.029033931694076302 -0.06358481810865639 -0.0702880938073931
109 0.055086097764902385 -0.04056688158955288 -0.0798427708422736
110 0.05337294069889615 -0.05280401058878148 -0.12195157579098236
70 -0.11197118781568215 0.03351438504281969 -0.06425469865554315
72 -0.12095320924177405 0.08820024916514714 -0.07219713338569843
73 -0.17517379762860424 0.007438077890205247 -0.08331946825749306
75 -0.2161037060402416 0.03102581138391641 -0.07509447890697023
76 -0.17226548537637681 0.03957480137749458 -0.11483640750596706
78 -0.13887308142428498 0.013477592399738994 -0.07899974410122332
112 0.0817259202704576 -0.08689494537408776 -0.08510875451738098
113 0.07742822483565885 -0.07362128486942995 -0.062174642767995336
115 0.07909981563231389 -0.08063863257203523 -0.06314380548817304
116 0.09958870977860891 -0.04433968709386958 -0.09699617954895053
118 0.09329393685459135 -0.06099370494716353 -0.06134020770813289
79 -0.1705943573135876 0.014463380785265673 -0.034888491361396795
81 -0.18048062324441252 0.07803641623773742 -0.08613474582097003
1 -0.13606158339822688 0.04394880128637862 -0.020737304444936586
3 -0.14416758073369773 0.07407746198270149 0.03697946236306771
4 -0.11658306681297663 0.0701407843994092 -0.02815618375032658
6 -0.13084456265950273 0.08110228824983835 0.00972340001731915
119 0.1259047212408839 -0.05987199994702409 -0.050168438887120484
121 0.12169732738548356 -0.060159720983956166 -0.01720099730978571
122 0.11599153823011164 -0.009997907016169537 0.015679150812264137
125 0.11375108038513843 -0.015416697544417069 0.055492572926693365
124 0.06971572303595602 -0.05729177547833321 0.032152175581288536
7 -0.11046455376150249 0.08398231024597563 -0.013556138923328515
9 -0.1135101555714176 0.0762370193154419 -0.04624065783778858
10 -0.16570201201527832 0.13078335258308965 -0.0006822786212761293
12 -0.14233147447596672 0.17723840868249813 -0.025411724010111287
13 -0.20355438796027336 0.10547204722038826 -0.0033548926241509245
127 0.058151885508792064 -0.01981458792228145 0.02024346560755625
128 0.07369513743687565 -0.016881813487914378 0.026766005533619335
130 0.05475679528801484 -0.024730329090663288 0.0452729784456702
131 0.07354913966842629 -0.023406585575574946 0.04685509964942552
134 0.025076823703904 -0.015153225781698601 -0.006618499522027457
133 0.06143066140890502 -0.0030508474436809563 0.02206536024377307
15 -0.1774800515154894 0.10203453371654729 0.00931267055976183
16 -0.1840144469788365 0.118353551378261 0.018474600481328523
18 -0.16717247619245143 0.10435030516161957 0.03162726242349575
19 -0.13482134896942158 0.1006607485789727 0.018310729056540895
21 -0.08830046352150947 0.0904601092162249 0.001662920587935014
22 -0.1363791453206092 0.11618249306838155 -0.01113680448915686
136 0.0675492478304433 0.01434649310401105 -0.03493911776048691
137 0.03823255770863273 -0.00042253177478699457 -0.03934820638034064
140 0.06407735570960206 0.0105110590316644 -0.08995622057808654
24 -0.12195169359514854 0.1317945628370612 -0.04864895292193898
139 0.08087468376526974 0.03365979009395233 -0.06147094270889768
142 0.06465083368514439 0.03008641750360304 -0.09514777794195303
25 -0.1297603290147546 0.06122543003137451 -0.0030613669818552566
27 -0.08025461003712026 0.07618422660298609 0.002395903638236472
26 -0.15389575002074618 0.04580589689255975 0.009111824967559846
28 -0.09802645585507691 0.01630472973842458 0.01983496090916909
30 -0.11360120565363674 -0.0006637060363086657 -0.01077760752811828
29 -0.10230270064199606 -0.04018664560466889 0.015798072464732825
143 0.04366593768177698 0.02592160992720373 -0.11758859817540346
145 0.04847944098652966 0.016480782206794338 -0.10056254638323055
146 0.05267738171412377 0.05276776806128854 -0.0681092780458838
149 0.039498586548230644 0.018934864422245967 -0.06822232622130149
31 -0.05805574204868295 -0.015405498887188913 0.007642478637941794
33 -0.07322801398217957 0.008295660606865186 -0.024620863231847128
32 -0.08071777074089664 -0.013757899253081818 -0.014294867093678257
36 -0.1175044843459621 -0.03404952302069701 -0.04210209465657617
34 -0.1085110750049256 -0.046826172871080436 -0.06154251880120163
35 -0.13347531055304698 -0.06807921412697261 -0.035104427251283196
148 0.02542616566372536 0.029198139852313655 -0.08578483930718041
37 -0.1391196728005157 -0.07000809666588206 -0.07008130895204748
39 -0.14207465067698122 -0.11930013421809299 -0.07941118420635546
38 -0.12215628029056062 -0.03830173606367535 -0.08510895518200734
151 0.059444936699069154 0.02260588230610056 -0.014283493599049457
152 0.07496906033506014 0.030369057012479085 -0.0370431956250069
155 0.05442731780066443 -0.012623257902878793 0.019503973408468413
42 -0.13799839035692543 0.00455297453798801 -0.06750454913576602
40 -0.1432295542643684 -0.004468615534408046 -0.05006628095498855
41 -0.10441112095681865 -0.015251218462715386 -0.05406858378968484
43 -0.1537194958003652 -0.04941702078061401 -0.004070778371274481
45 -0.19904295046588105 -0.10818926943608825 0.056121194142672234
44 -0.04747797522540151 -0.05592487592923039 -0.027024913084563618
157 0.061450804234036926 0.006203727762736442 0.044455908425841136
154 0.05277704521177835 0.003204456385148282 0.03213270276118793
158 0.075778662588021 0.02407551486951332 0.05400936208704053
83 0.03289862559793219 -0.0011526385083436242 0.06717450218134118
86 0.09479391396603648 0.01707605120027509 0.073448003039754
88 0.07119620826248718 0.020758952585462787 0.05111122669643275
48 -0.1018966938553251 -0.02278619621602987 0.10982664442469349
46 -0.08088366542707055 -0.026011366078806473 0.025592207183735918
47 -0.08411375304786542 -0.03024275407176576 -0.013115091942253153
49 -0.07981141960472017 -0.005126672876032084 0.10056257270345542
51 -0.052751564715518416 -0.0723169577076168 0.09389327846681929
50 -0.04134605861741723 -0.05017771421216965 0.10623473671064976
82 0.039767478475385726 0.0168110909236739 0.07135502429316133
85 0.07611396106191783 0.027068568798393946 0.06503269932159152
54 -0.0806201270387652 -0.005710565922860322 0.10761450192750825
52 -0.05600017207493092 -0.02414882982037008 0.12147341015612875
53 -0.09757884678374962 -0.06571574345890412 0.12097732326579753
61 -0.09177940193863617 0.033362594442036445 0.09083748048358888
58 -0.07610267208558547 -0.03035619277705675 0.08796753069786088
60 -0.05783782568095916 0.028321689587530004 0.10487387024641624
89 0.05439796005940747 0.032938259013072214 0.06553905632095706
91 0.03818910438571188 0.019689113127696424 0.10375374734771066
55 -0.11699212470839666 -0.0014630100687251704 0.15311539004146418
57 -0.07890429320181393 -0.0036941404423613423 0.12057692014873475
92 0.06685526112392659 0.04162657672229746 0.09742566480107415
94 0.04757802288730351 0.036252917326211914 0.08220079759474222
95 0.025160951733878258 -0.005772727312654819 0.09786770184728766
56 -0.12485813830233232 -0.023745781188771214 0.13399677792376932
59 -0.17031457115789922 -0.011467695995134312 0.08938897586977093
102 0.07101317306550113 -0.05653526088608147 0.05217346105867316
99 0.04422167596290407 -0.001144213319085506 0.1001873968563139
105 0.09433156155718503 -0.09734876003746272 -0.006851134276731982
108 0.08204111109609451 -0.04414122971731648 -0.08622689652384304
111 0.08177808072012835 -0.06605182244312356 -0.09135780029625061
114 0.06748044791222313 -0.06140223620591436 -0.08538695790495994
117 0.07479359509936413 -0.06760884790733032 -0.06587175276770504
120 0.055820510943301066 -0.050122060677219665 -0.052402580251806885
123 0.06467113025971415 -0.06854921042646912 -0.040300489797330336
126 0.11459448772393889 -0.05909524353278826 0.06747719792875073
129 0.05062014858985002 -0.07685392850562325 0.016546217708496926
132 0.03694260524320548 -0.010178740542597754 0.03546673822663036
135 0.09052233843536239 -0.007234501061171761 0.002818713330785619
138 0.12994319360604553 0.032076845392849856 -0.04572564023440335
141 0.08210833827791914 0.04073569960297103 -0.08249431811061754
144 0.07719599355683691 0.04948211487120458 -0.09805686380273443
147 -0.006012506418366042 0.018372354927324523 -0.10253039108522438
150 -0.02200764886386596 0.034951876585950385 -0.043159937234967305
153 0.052657249619738965 -0.01611912694046798 -0.014462318507098067
156 -0.0035092254453553263 -0.015206267272596607 0.044371136194760984
159 0.04747943128719059 -0.007749056111521622 0.0560030726619626
84 0.03127543800050885 0.025685767935315768 0.035729819414650726
87 0.06009167593713591 0.02240042607929027 0.07263901874581541
90 0.039767693927219634 -0.005427170189617892 0.0678484300145971
93 0.039836872133110934 0.03453427218424081 0.08598979579769238
96 0.041123057799688445 0.011305702975660616 0.10264873473607486
68 -0.14848365072105718 0.03225971967736857 -0.05370522178321628
71 -0.20317599776905473 0.061546440963261784 -0.05616709496351925
74 -0.17256061776667608 0.06454531117532339 -0.0484068983455292
77 -0.12635375116205694 0.08115541348691606 -0.02961109525985589
80 -0.1034004883700404 0.009642011233244943 -0.052753441613972885
2 -0.13527962670111554 0.01080088254875744 0.022487508983985313
5 -0.19045680668883525 0.06155847459334795 0.027961320507062487
8 -0.1871766688606049 0.12268782105806063 0.0004231243696224669
11 -0.16890239451064407 0.12078847325984297 -0.013574917790467572
17 -0.21649534319856897 0.09285725708430265 0.002808384723128111
14 -0.24567006488784804 0.10146646346048906 -0.005182211682120536
20 -0.09427495072741401 0.05394569279837834 0.04144064525872431
23 -0.15235746050027502 0.023877737055343053 -0.02974767671441957
