LAMMPS data file via write_data, version 27 Jun 2024, timestep = 1520, units = metal

159 atoms
6 atom types

0 85.32567 xlo xhi
0 2.84229537522053 ylo yhi
0 100 zlo zhi
-1.641 0 0 xy xz yz

Masses

1 95.95
2 32.06
3 32.06
4 183.84
5 78.971
6 78.971

Atoms # atomic

1 1 -0.8158209813064885 2.2807175243490065 1.7265816418852455 0 -1 0
2 2 0.7467653208275744 1.2964856259634907 0.16040092128977168 0 0 0
3 3 0.8090441141072333 1.3335389498437247 3.252322722622513 0 0 0
4 1 2.355526978420598 2.2677693324064547 1.6615081493565376 0 -1 0
5 2 3.9096823600249024 1.2773540805476546 0.09002008861069832 0 0 0
6 3 3.987932948525329 1.322915311905838 3.181926752711581 0 0 0
7 1 5.527731438235565 2.2474909126372458 1.581324708300233 0 -1 0
8 2 7.076008744799648 1.252772734997238 0.006349556793594502 0 0 0
9 3 7.164047289148546 1.3033510088156728 3.098472531521446 0 0 0
82 4 84.64630496709133 0.5240311949307602 7.978318035179871 -1 0 0
83 5 -0.7095395742637096 2.4024883403343296 6.316451959127212 0 0 0
85 4 2.5964294873556195 0.5297041731527459 7.920300827711658 0 0 0
86 5 2.5597720599843443 2.4059286770905963 6.254491590598439 0 0 0
88 4 5.870367968075678 0.5392995151773062 7.851037812151136 0 0 0
89 5 5.829896434121528 2.4144302341882207 6.182458760255626 0 0 0
10 1 8.699197420796443 2.2212561528766432 1.4922616678428762 0 -1 0
11 2 10.245230440175085 1.224647460129129 99.9161948147159 0 0 -1
12 3 10.33489937641323 1.2756292310772308 3.0089361996505133 0 0 0
13 1 11.868803499020073 2.190320894880702 1.4026349336500004 0 -1 0
14 2 13.417135639652855 1.1947195394890398 99.82828649235479 0 0 -1
15 3 13.4989960160633 1.2407352528348465 2.922001806942315 0 0 0
91 4 9.143738134408576 0.55209508040122 7.775000128006909 0 0 0
92 5 9.103251649072632 2.4280410496470917 6.105749107530203 0 0 0
94 4 12.417659813434119 0.567542917639279 7.699272175052899 0 0 0
95 5 12.381267885477941 2.4464179311641567 6.0317322144170475 0 0 0
16 1 15.036069613862763 2.156060569465213 1.321816203927077 0 -1 0
17 2 16.591800782823654 1.1646522639306176 99.75240048171746 0 0 -1
18 3 16.655938538150757 1.2000309713091446 2.847236740181659 0 0 0
19 1 18.20116134330659 2.1200013205051382 1.2597267523828755 0 -1 0
20 2 19.768398774316196 1.1353701978172264 99.6979040299582 0 0 -1
21 3 19.80722240099275 1.1557669372258847 2.793717301123212 0 0 0
22 1 21.36445076270347 2.0836399560994256 1.2235859512080216 0 -1 0
23 2 22.945532329649332 1.1073419083794742 99.67094754345621 0 0 -1
24 3 22.955490562980646 1.1107199717807605 2.7672748709052817 0 0 0
97 4 15.69287548437895 0.584967355565769 7.631361404642827 0 0 0
98 5 15.664430135546567 2.468796343681875 5.968007606000915 0 0 0
100 4 18.9697345824188 0.6037053107302335 7.578500522037452 0 0 0
101 5 18.95193530048314 2.4938584033009 5.921312825673675 0 0 0
103 4 22.2481309828377 0.6228378596334055 7.545769958150538 0 0 0
104 5 22.241929740309395 2.5196953223175997 5.89585210016729 0 0 0
25 1 24.526573500059808 2.0485702395926286 1.2165422951875116 0 -1 0
26 2 26.121661804880016 1.0809442676408663 99.67327844066534 0 0 -1
27 3 26.10416042622461 1.0681097711157193 2.769347893662436 0 0 0
28 1 27.688610278875835 2.0168274022871526 1.2368436872175455 0 -1 0
29 2 29.29485264923395 1.0564620781517096 99.70121009982456 0 0 -1
30 3 29.25615839980031 1.031020233749429 2.796744760855749 0 0 0
31 1 30.850482508962354 1.9897898781435945 1.2778447630521392 0 -1 0
32 2 32.463898846745415 1.0346583376059009 99.74705548903468 0 0 -1
33 3 32.4128321639733 1.001693666283931 2.8419730120961395 0 0 0
106 4 25.527243032577534 0.6410340587892758 7.535432750043716 0 0 0
107 5 25.53236039580442 2.544302379577021 5.893075211851979 0 0 0
109 4 28.80678220395537 0.6573853303698787 7.547101333598892 0 0 0
110 5 28.821373916422594 2.5658397173401166 5.911575113764892 0 0 0
112 4 32.0865345437721 0.6708544430566211 7.577511713297278 0 0 0
113 5 32.10755571437701 2.5825311317948274 5.947251792938302 0 0 0
34 1 34.01220427007585 1.9690803862388393 1.330616404552591 0 -1 0
35 2 35.629183896336976 1.0174800931420753 99.80192532340646 0 0 -1
36 3 35.574521780973214 0.9820634425390393 2.895849426270812 0 0 0
37 1 37.17455217412709 1.9572630236008821 1.3864709145413068 0 -1 0
38 2 38.79098832263514 1.007062811178852 99.85736230026411 0 0 -1
39 3 38.73902550487915 0.9728697834970619 2.9509545649603464 0 0 0
40 1 40.3352098555187 1.954505046247219 1.4393986212719412 0 -1 0
41 2 41.94908242034258 1.00478857114896 99.90850379259733 0 0 -1
42 3 41.90336395011965 0.9739802086575878 3.001856225353332 0 0 0
115 4 35.36577405172278 0.6798774165625685 7.621705212211759 0 0 0
116 5 35.39079486926406 2.5932210517780585 5.994784482970844 0 0 0
118 4 38.64588119771799 0.684469787838625 7.673772853681056 0 0 0
119 5 38.67235156110926 2.5977737797475213 6.048223577821614 0 0 0
43 1 43.49312653177701 1.9616924165192646 1.4860214866865735 0 -1 0
44 2 45.103626845448936 1.0121326572126306 99.95291348165088 0 0 -1
45 3 45.064812809353405 0.9852863875338843 3.0461733313790074 0 0 0
46 1 46.64717079286311 1.97904644970632 1.5258673951502302 0 -1 0
47 2 48.25459199335729 1.0297336529948768 99.99075164958296 0 0 -1
48 3 48.22136980469228 1.0063868181167384 3.0841469261668095 0 0 0
121 4 41.92762059197709 0.6841102308166247 7.728413856603414 0 0 0
122 5 41.95389914898701 2.5961779094006796 6.102779422779739 0 0 0
124 4 45.211735462617035 0.6785695589093841 7.781963508109657 0 0 0
125 5 45.23713023419837 2.58874469590661 6.155429752750049 0 0 0
127 4 48.49892532902392 0.6680624716697605 7.832447030068283 0 0 0
128 5 48.52292359383323 2.575648020073976 6.204864364204766 0 0 0
49 1 49.7967003175719 2.005891186512566 1.5602809456406073 0 -1 0
50 2 51.40302995255837 1.0580849654236435 0.02405462574812894 0 0 0
51 3 51.373125538618055 1.0372757391061624 3.116786674512031 0 0 0
52 1 52.94365156756836 2.043603871642046 1.5911864874875412 0 -1 0
53 2 54.55004609515902 1.0970040142078232 0.055164683838710156 0 0 0
54 3 54.51867017791959 1.0762644616305945 3.1479965491512885 0 0 0
55 1 56.08761417749231 2.086508961025042 1.623856534886812 0 -1 0
56 2 57.69560540636163 1.141151057127474 0.08895778531580778 0 0 0
57 3 57.6604655313185 1.1194978246963194 3.181797597699301 0 0 0
130 4 51.78819363362176 0.6513264327583856 7.880023734292826 0 0 0
131 5 51.81124701303361 2.5568186188804987 6.251051639077144 0 0 0
133 4 55.08004813649974 0.6313202549002741 7.9232919674138 0 0 0
134 5 55.101851176619256 2.5346996510672253 6.292775867028756 0 0 0
136 4 58.37340045802358 0.6097319812129925 7.962020990260234 0 0 0
137 5 58.3934883755565 2.5107365452052526 6.3302662701276695 0 0 0
58 1 59.230719509378176 2.131030873100538 1.6601509563388266 0 -1 0
59 2 60.84074657886576 1.1869638620643872 0.12616570678430145 0 0 0
60 3 60.80328275763434 1.165361559740587 3.218257457904683 0 0 0
61 1 62.37603740319675 2.1773504867781677 1.697791034819152 0 -1 0
62 2 63.98678743921563 1.2323574591554582 0.164154036293292 0 0 0
63 3 63.94832365971204 1.2113466232101089 3.2562651492039576 0 0 0
64 1 65.52488205567938 2.217952332261689 1.7358999678934308 0 -1 0
65 2 67.13469930566596 1.270533449708324 0.2013569516106836 0 0 0
66 3 67.09945278829163 1.2522811743724807 3.2933579824288954 0 0 0
139 4 61.666309840518636 0.5859501901044092 7.9973665773539055 0 0 0
140 5 61.6841314464099 2.4853649719160775 6.363931549902152 0 0 0
142 4 64.95763177430356 0.564375462814045 8.027348708788134 0 0 0
143 5 64.97168245895904 2.461901469241016 6.391592372209811 0 0 0
67 1 68.67882598032233 2.250634874333684 1.7699080264074347 0 -1 0
68 2 70.28506688701269 1.2990217889867282 0.2326628664546253 0 0 0
69 3 70.25840795382051 1.2862467652063831 3.324677232847316 0 0 0
70 1 71.83815267778415 2.27414376317757 1.7944892038442535 0 -1 0
71 2 73.4381880336681 1.3168381431183238 0.2527889158724869 0 0 0
72 3 73.42523767018885 1.3121134044833656 3.3448701453084166 0 0 0
73 1 75.00242046763302 2.2882800399854504 1.80464203342011 0 -1 0
74 2 76.59421076666413 1.3243265175627184 0.2573003547582874 0 0 0
75 3 76.59842274353073 1.3293297561792006 3.3494830293045084 0 0 0
145 4 68.24617254195243 0.5464039403823124 8.050093288815129 0 0 0
146 5 68.25503435229221 2.4417364561542887 6.4114207565653984 0 0 0
148 4 71.53132430585745 0.5329142585072364 8.063654875440424 0 0 0
149 5 71.53358611996471 2.4255671041355744 6.421287895642451 0 0 0
151 4 74.81318856339348 0.5242271755557512 8.065448141590752 0 0 0
152 5 74.80755182419664 2.4135871866199494 6.4184786880757905 0 0 0
76 1 78.1703904742428 2.2935320706924647 1.7972648946002743 0 -1 0
77 2 79.75267132489691 1.322524233759307 0.24382110204228535 0 0 0
78 3 79.77552204052114 1.3379016398528005 3.336145332651383 0 0 0
79 1 81.34026175105919 2.2907103224179357 1.771363478171515 0 -1 0
80 2 82.91212538475278 1.3124765030186551 0.21153413819716693 0 0 0
81 3 82.95428712245011 1.338504586842781 3.3043111381683588 0 0 0
154 4 78.09235909633857 0.520201864431207 8.052669962809459 0 0 0
155 5 78.07808327036666 2.4058079729518997 6.400454423349567 0 0 0
157 4 81.3696844709659 0.5203444755278966 8.023580851304057 0 0 0
158 5 81.34701676858475 2.40220184107513 6.366057717187385 0 0 0
84 6 -0.6527889284927451 2.43605352370755 9.604142320687282 0 0 0
87 6 2.6284267231766196 2.4457497443436385 9.541962028250314 0 0 0
90 6 5.906150127015013 2.4581137911959945 9.469786335213747 0 0 0
93 6 9.18034360952491 2.4717584973145263 9.393122859104668 0 0 0
96 6 12.451548114861888 2.485815153247767 9.319371462223483 0 0 0
99 6 15.720522425533948 2.4996612082163985 9.256031294566423 0 0 0
102 6 18.988317121556573 2.513035807817009 9.209665517737976 0 0 0
105 6 22.25586247781824 2.525615343415413 9.184416831754994 0 0 0
108 6 25.523993516594707 2.5370472449262933 9.181584056453103 0 0 0
111 6 28.79372342110499 2.547139155419431 9.199794372520133 0 0 0
114 6 32.06556907738147 2.5552322996071295 9.235269184680943 0 0 0
117 6 35.340352135756575 2.5607379034809195 9.282538629541474 0 0 0
120 6 38.61884063564954 2.5632791051500328 9.335879762725437 0 0 0
123 6 41.90116011027643 2.5620347880605436 9.390457550138294 0 0 0
126 6 45.187162681009745 2.556353742965175 9.443074495998916 0 0 0
129 6 48.47592606914886 2.545433117435423 9.49275135194872 0 0 0
132 6 51.76786500357591 2.529470959290228 9.538980172477212 0 0 0
135 6 55.06216630644077 2.5105469888274423 9.580696989664622 0 0 0
138 6 58.35686360255488 2.4895073951509397 9.618412196683272 0 0 0
141 6 61.651927897766136 2.4677010941387625 9.652144620922178 0 0 0
144 6 64.94601577030424 2.4487760769548967 9.679929197746624 0 0 0
147 6 68.238250180613 2.4341722345830967 9.699865056328248 0 0 0
150 6 71.52848222679526 2.424855096897805 9.709790214288414 0 0 0
153 6 74.81702224611219 2.4211385538816756 9.70695239883884 0 0 0
156 6 78.10407006804631 2.4225768015451914 9.688781401299005 0 0 0
159 6 81.3895917244953 2.428120532384352 9.654017683557488 0 0 0

Velocities

1 0.0017635915713901994 0.0005713849751898874 -0.0007880514767114738
2 0.0025617082410612905 0.0010768616117851858 -0.0003360238758835836
3 0.0010069895533778236 0.0002006107599916102 -0.0002920266080590803
4 0.001762932323113467 0.0007771689821955833 0.0008123481659355155
5 0.0025518748900566616 0.001272309774290043 0.001229403040618717
6 0.001043959060119765 0.0004218584946679389 0.0012666917530430614
7 0.0018052793203919557 0.0009692673799916167 0.002337529173478021
8 0.0025498792524019332 0.0014079834736323367 0.002702910642283675
9 0.0011696476732261018 0.0006342623711769091 0.002749866613012496
82 -0.0018035780670044997 -0.0001938608471498062 -0.001242334228392146
83 -0.0010363517687320433 0.00022328866238331915 -0.0006663480721289491
85 -0.0017504984053878115 -0.0003007936617789241 0.0002940758046315967
86 -0.0009885933345403347 0.00010858253505536464 0.0008709078986892672
88 -0.0017411771575850013 -0.0003643748642069589 0.001803400793353356
89 -0.0010462038729322865 -1.3464477161085e-05 0.0023443798493391114
10 0.0018699468462065934 0.0011493943216932233 0.0037072032281495527
11 0.002469573790086469 0.0015001247425413288 0.004010909422245031
12 0.0013830298611143099 0.0008560847089516266 0.004034272465666425
13 0.00197191852241423 0.0012420603338881993 0.004781439829605012
14 0.00238340434275601 0.0014864940260060973 0.005000609903901656
15 0.001642292248079261 0.0010799248437940057 0.0050109856163588744
91 -0.001723667653516106 -0.00044885109051992175 0.003175005945981668
92 -0.0011694646674660387 -0.00013508471493649485 0.0036470123411072876
94 -0.0017379149680824912 -0.0005046138792027593 0.0043247689262229955
95 -0.0013521803214541943 -0.0002857468290157389 0.0046676147745696814
16 0.0020472468344503933 0.0013174697763473095 0.005468249886280022
17 0.0022308309460055357 0.001408444404440415 0.005567880334118745
18 0.001959160082701547 0.0012673910342744159 0.0055672114221779305
19 0.0021184840011832834 0.0013354197869834396 0.005705180786423606
20 0.0020630409255922673 0.0012905325198597198 0.005676444420384985
21 0.0022151378325481934 0.0013945444339442047 0.005673556554144043
22 0.002177550907438782 0.0012699792625349019 0.005513723271544493
23 0.0019006518915046268 0.001106142971464837 0.00534826091671976
24 0.002440083635351839 0.0014266808624823722 0.005347554528191794
97 -0.0017881675977397152 -0.0005246077087962443 0.005112197501603663
98 -0.0015820330510934318 -0.0004267241449588827 0.005338656509233735
100 -0.0018217830372198062 -0.0005479545528280436 0.005514159665884114
101 -0.0018345209154288565 -0.0005612271102388349 0.0056027351839315915
103 -0.0018817761384266134 -0.0005136978163647196 0.005518904936937612
104 -0.002042704109910524 -0.0006318739064113452 0.005491771472721004
25 0.00218921301284867 0.0011893147924050063 0.004949514786277148
26 0.0018061713860108098 0.0009248515617287529 0.004681850110978076
27 0.0025438005864744724 0.001370335724445664 0.0046983800209115705
28 0.002204944054808632 0.000982983533598808 0.004220764037737398
29 0.001770943055323694 0.0006650666431056692 0.003896998993640362
30 0.002573774349511849 0.0011502432720921 0.0039221805401143655
31 0.002239886327228495 0.0006923451544623414 0.0034185410477123937
32 0.0017865938930293876 0.0003949072813983066 0.0030782151959186494
33 0.002551473129962473 0.0008599373314150053 0.003119147306551332
106 -0.0019098613766789444 -0.00045693570609279036 0.005175908657510248
107 -0.00223614284299976 -0.0006224730547895186 0.005033602854379898
109 -0.001949438950862372 -0.00034526950139836005 0.00452639728618913
110 -0.0023378282940900675 -0.0005620271596394691 0.004334410038201496
112 -0.0019738789566266114 -0.00017749919158320903 0.003695874037065739
113 -0.002415132639027277 -0.00043391445401907725 0.003446429397075033
34 0.002261016347621155 0.0003591369121948488 0.002620942363574238
35 0.001877073000665012 6.291840158329431e-05 0.0023282892436795083
36 0.002543230736831934 0.00046834737717390954 0.002372797288363253
37 0.0023369821076907535 -8.57108790839034e-05 0.0019145107084369976
38 0.001975102284534845 -0.0003796478061111473 0.0016566886506486226
39 0.0026040447108005745 1.2139623566840424e-06 0.001697764055735737
40 0.0024620953418305917 -0.0005893489320550771 0.0012269062783538717
41 0.002117317652789317 -0.0008904638170170088 0.00100728550480358
42 0.002766201445071489 -0.0005101383755607612 0.0010347874096652233
115 -0.001996234610543472 6.640705840085823e-06 0.002751032231229247
116 -0.002483020436021908 -0.00022622471823367614 0.0024751678195355856
118 -0.0020594779265223372 0.0002525718079982009 0.0017561402427062204
119 -0.0025686660825098525 1.8945281169438825e-05 0.0014703162914699844
43 0.0026456066768554914 -0.0011068559286363125 0.0005353760131851282
44 0.002250384065775787 -0.0014447493226967035 0.0002791413745543082
45 0.003039368960338666 -0.0009975109443066863 0.0003094328396738463
46 0.002857857982706604 -0.001617549900976376 -0.00029880974156518017
47 0.0023938097474165074 -0.0019673250058368326 -0.0006083333511981094
48 0.0033472854643783034 -0.0014422539962713821 -0.000579920206394834
121 -0.002144775215067166 0.0004907802298398182 0.000728132407222321
122 -0.002670033814140712 0.00025324494386436835 0.0004298451615667796
124 -0.0022631007934119543 0.0007587311949706229 -0.0003305122339682044
125 -0.002823145227642323 0.000529237656174598 -0.0006442924452118836
127 -0.0024126741305182486 0.0010127111840859142 -0.0013902792239075296
128 -0.0029630478326151577 0.0007680627803288507 -0.0016997681372273154
49 0.0030674430453361025 -0.0020286734193807545 -0.001285987844762836
50 0.002555127043048351 -0.002401335947536373 -0.0016460773552119943
51 0.0036401279615876792 -0.0018234668818406486 -0.0016248960441805885
52 0.0032553025032724075 -0.0023640186682398288 -0.00241215134289475
53 0.002679252408297059 -0.0027194044971495758 -0.00279453338217029
54 0.003848226049789678 -0.0021061000618793056 -0.002770174799309818
55 0.0033219356240464545 -0.0025038275361774164 -0.003613540705315125
56 0.002765140703846744 -0.0028170022340824404 -0.003971999263146496
57 0.003880997551420794 -0.00224526785269026 -0.003940167999708549
130 -0.002533114803227821 0.001187230614423221 -0.0024078802111183843
131 -0.003063084409241799 0.0009663264771809893 -0.0027092614898243904
133 -0.0026426512893769397 0.0013114195223952704 -0.003366590806108424
134 -0.0031014348265802206 0.0010904089337100402 -0.003636750398422959
136 -0.0026599891757271396 0.0013302904457284709 -0.004233829749127911
137 -0.003023539067383996 0.0011578228507073383 -0.0044383578589659205
58 0.0032701734646424707 -0.00243386497627908 -0.004721622263400807
59 0.0028092018460096355 -0.0026319076486805443 -0.005016539625228582
60 0.0036974845745761046 -0.0021875273231688162 -0.005000542898161421
61 0.0031299127802385247 -0.0021958955146793623 -0.0055912041473837855
62 0.0028527773813581884 -0.002269721636602363 -0.005755104100028859
63 0.003356627811633295 -0.002034467392168234 -0.005736198360341736
64 0.0028966111033269675 -0.0018096090047980608 -0.0060305589892228565
65 0.0028299728019891145 -0.0017246079289417258 -0.006073262017123108
66 0.0028874078344055514 -0.001725905348543465 -0.006061397329778766
139 -0.002620763587915401 0.0012514441511193401 -0.004901888547152948
140 -0.0028422798157819 0.0011033882225005244 -0.005032554944983947
142 -0.002521182264908505 0.0010812456889334524 -0.005343362898684422
143 -0.002601725157023121 0.0010083404673800578 -0.005386414435830278
67 0.002622640446749154 -0.0013203546103251911 -0.006025484622972349
68 0.002788739895977582 -0.001122914182666688 -0.005920548509827699
69 0.0024017961883996226 -0.0013574405296646727 -0.005926763453601947
70 0.0023734510569461843 -0.0008578767640393375 -0.0055881908811688035
71 0.0027223010533879853 -0.0005555449658810033 -0.005349437824846671
72 0.0019500970132215315 -0.000996491941432875 -0.0053557121862275224
73 0.002142413478385718 -0.0004194119404049388 -0.004762087010010313
74 0.0026494162553898654 -4.6887074864153675e-05 -0.004426458941103707
75 0.0015886677259675712 -0.000641882614634385 -0.004425963028780955
145 -0.0023773063223496323 0.0008543554027227844 -0.00550284640850598
146 -0.0022560645198769274 0.0008501748968796292 -0.005429373499556423
148 -0.002206127675470717 0.0005769124318231314 -0.005304395321122275
149 -0.001919698773679425 0.0006832899190895517 -0.005112715707342154
151 -0.002074891505920754 0.00033749041330819515 -0.004760941180159264
152 -0.0016147897561167798 0.0005268342849842406 -0.004442506830739338
76 0.0019615177993738604 -2.7501518473613628e-05 -0.003644817022381952
77 0.0026108539017798303 0.0004098775571168902 -0.003229557665919792
78 0.0013037871500033839 -0.0003236098767240071 -0.00321602489759574
79 0.0018360472472865028 0.00028196503497352767 -0.002272760811762569
80 0.0025629162162589206 0.0007696937326355349 -0.0018352472742838555
81 0.001105932046764939 -4.685864117932475e-05 -0.0018174105174632422
154 -0.0019575375071568327 0.00010421602043559378 -0.0038634349909802573
155 -0.0013507454864994128 0.0004139069548955177 -0.0034241606678786676
157 -0.0018646195979289712 -6.417312768781179e-05 -0.002657322792719514
158 -0.0011527393551461406 0.00030019804949043893 -0.002135074665064287
84 -0.0025687305219154986 -0.000642296567718222 -0.0006321020828927142
87 -0.0025119854735329706 -0.0007541309854300491 0.0009093981828511054
90 -0.0024338845282322412 -0.0007979663382836511 0.002382543978353577
93 -0.0023080199612478193 -0.0007893271923993339 0.003684750045055322
96 -0.0021704862735895288 -0.0007445292919055217 0.004696777660772024
99 -0.0020133202684883876 -0.0006667933805646396 0.005346914851251363
102 -0.0018569045960370578 -0.0005658191734301653 0.005612624452803272
105 -0.0017524418420993423 -0.0003924443381995319 0.005491236268981509
108 -0.0016167004476051038 -0.00025222994049717095 0.005033183519126628
111 -0.0015291622302509398 -8.078700270692306e-05 0.00434849887789854
114 -0.0014956821241452955 0.00011619713403871559 0.0034651308778449147
117 -0.0014964544445796493 0.0003589692998182798 0.0025032700768371605
120 -0.001563237394593723 0.0006091422427153079 0.001494341647167724
123 -0.0016341682401684915 0.0008483830490339106 0.0004504984946535622
126 -0.0017782994370871376 0.0011136566639750637 -0.000622583282198792
129 -0.001922144240201747 0.0013314495774516724 -0.0016830630231309848
132 -0.0020768165320905712 0.0014804781884970566 -0.002691833031972272
135 -0.0022011907414715404 0.0015484408352158777 -0.0036242345081668285
138 -0.0023034110603019674 0.0015128190566397305 -0.004433250323580981
141 -0.002355313358434249 0.0013386027215685976 -0.005030096107681973
144 -0.0023964031256783597 0.001099262244277026 -0.005384218736469572
147 -0.0024155495503346593 0.0007505282290511207 -0.005434408817334003
150 -0.0024405687151009435 0.0003886455228333886 -0.005113718968166154
153 -0.0024907234194228287 3.788742926348916e-05 -0.004439691162391128
156 -0.002537149460586951 -0.0002510341478032094 -0.0034138549886203865
159 -0.0025530765962367384 -0.0004879527923281142 -0.002111902503644812
