ITEM: TIMESTEP
0
ITEM: NUMBER OF ATOMS
540
ITEM: BOX BOUNDS xy xz yz pp pp pp
-2.7496150547204270e+01 3.7593658013431089e+01 -2.7496150547204270e+01
0.0000000000000000e+00 2.1527795248303640e+01 0.0000000000000000e+00
0.0000000000000000e+00 1.0000000000000000e+02 0.0000000000000000e+00
ITEM: ATOMS id type x y z
14 1 -11.999 10.2293 1.58593
285 5 -11.6058 9.42902 6.22707
9 2 -5.99957 5.11494 0
10 3 -5.99957 5.11494 3.17185
11 1 -9.87377 7.93915 1.58593
12 2 -8.12483 7.40513 0
13 3 -8.12483 7.40513 3.17185
15 2 -10.2501 9.69532 0
16 3 -10.2501 9.69532 3.17185
37 1 -4.62672 6.33602 1.58593
40 1 -6.75198 8.62621 1.58593
41 2 -5.00304 8.09218 0
42 3 -5.00304 8.09218 3.17185
44 2 -7.12829 10.3824 0
45 3 -7.12829 10.3824 3.17185
68 1 -3.63019 9.31327 1.58593
283 5 -9.16544 7.17612 6.22707
307 4 -5.47677 6.34134 7.89943
308 5 -3.63261 5.9245 6.22707
310 4 -7.91714 8.59425 7.89943
311 5 -6.07298 8.17741 6.22707
314 5 -8.51335 10.4303 6.22707
340 4 -4.82467 9.59554 7.89943
31 1 -0.376204 1.75564 1.58593
32 2 1.37274 1.22161 0
33 3 1.37274 1.22161 3.17185
34 1 -2.50146 4.04583 1.58593
35 2 -0.752522 3.5118 0
36 3 -0.752522 3.5118 3.17185
38 2 -2.87778 5.80199 0
39 3 -2.87778 5.80199 3.17185
58 1 4.87084 0.152504 1.58593
59 1 2.74558 2.4427 1.58593
60 2 4.49452 1.90867 0
61 3 4.49452 1.90867 3.17185
62 1 0.620327 4.73289 1.58593
63 2 2.36927 4.19886 0
64 3 2.36927 4.19886 3.17185
65 1 -1.50493 7.02308 1.58593
66 2 0.24401 6.48905 0
67 3 0.24401 6.48905 3.17185
69 2 -1.88125 8.77924 0
70 3 -1.88125 8.77924 3.17185
92 1 3.74211 5.41994 1.58593
95 1 1.61686 7.71013 1.58593
96 2 3.3658 7.17611 0
97 3 3.3658 7.17611 3.17185
98 1 -0.508399 10.0003 1.58593
99 2 1.24054 9.4663 0
100 3 1.24054 9.4663 3.17185
125 1 4.73865 8.39719 1.58593
128 1 2.61339 10.6874 1.58593
129 2 4.36233 10.1534 0
130 3 4.36233 10.1534 3.17185
301 4 -0.596031 1.83552 7.89943
302 5 1.24813 1.41868 6.22707
304 4 -3.0364 4.08843 7.89943
305 5 -1.19224 3.67159 6.22707
328 4 4.9368 0.583904 7.89943
331 4 2.49643 2.83681 7.89943
332 5 4.34059 2.41998 6.22707
334 4 0.056065 5.08972 7.89943
335 5 1.90022 4.67288 6.22707
337 4 -2.3843 7.34263 7.89943
338 5 -0.540145 6.92579 6.22707
341 5 -2.98051 9.1787 6.22707
364 4 3.14853 6.09101 7.89943
365 5 4.99269 5.67418 6.22707
367 4 0.708161 8.34392 7.89943
368 5 2.55232 7.92709 6.22707
370 4 -1.73221 10.5968 7.89943
371 5 0.111951 10.18 6.22707
397 4 3.80063 9.34522 7.89943
86 1 7.99263 0.839561 1.58593
87 2 9.74157 0.305534 0
88 3 9.74157 0.305534 3.17185
89 1 5.86737 3.12975 1.58593
90 2 7.61631 2.59572 0
91 3 7.61631 2.59572 3.17185
93 2 5.49106 4.88592 0
94 3 5.49106 4.88592 3.17185
116 1 11.1144 1.52662 1.58593
117 2 12.8634 0.992592 0
118 3 12.8634 0.992592 3.17185
119 1 8.98916 3.81681 1.58593
120 2 10.7381 3.28278 0
121 3 10.7381 3.28278 3.17185
122 1 6.8639 6.107 1.58593
123 2 8.61284 5.57297 0
124 3 8.61284 5.57297 3.17185
126 2 6.48759 7.86317 0
127 3 6.48759 7.86317 3.17185
146 1 12.111 4.50387 1.58593
149 1 9.98569 6.79406 1.58593
150 2 11.7346 6.26003 0
151 3 11.7346 6.26003 3.17185
152 1 7.86043 9.08425 1.58593
153 2 9.60938 8.55022 0
154 3 9.60938 8.55022 3.17185
179 1 13.1075 7.48112 1.58593
182 1 10.9822 9.77131 1.58593
183 2 12.7312 9.23728 0
184 3 12.7312 9.23728 3.17185
329 5 6.78096 0.167066 6.22707
358 4 8.02927 1.5852 7.89943
359 5 9.87343 1.16836 6.22707
361 4 5.5889 3.83811 7.89943
362 5 7.43306 3.42127 6.22707
388 4 11.1217 2.58649 7.89943
389 5 12.9659 2.16965 6.22707
391 4 8.68136 4.8394 7.89943
392 5 10.5255 4.42256 6.22707
394 4 6.24099 7.09231 7.89943
395 5 8.08515 6.67547 6.22707
398 5 5.64478 8.92838 6.22707
421 4 11.7738 5.84069 7.89943
424 4 9.33346 8.0936 7.89943
425 5 11.1776 7.67676 6.22707
427 4 6.89309 10.3465 7.89943
428 5 8.73725 9.92967 6.22707
454 4 12.4259 9.09489 7.89943
143 1 14.2362 2.21368 1.58593
144 2 15.9851 1.67965 0
145 3 15.9851 1.67965 3.17185
147 2 13.8599 3.96984 0
148 3 13.8599 3.96984 3.17185
170 1 19.4833 0.610542 1.58593
171 2 21.2322 0.076515 0
172 3 21.2322 0.076515 3.17185
173 1 17.358 2.90073 1.58593
174 2 19.1069 2.36671 0
175 3 19.1069 2.36671 3.17185
176 1 15.2327 5.19092 1.58593
177 2 16.9817 4.6569 0
178 3 16.9817 4.6569 3.17185
180 2 14.8564 6.94709 0
181 3 14.8564 6.94709 3.17185
203 1 20.4798 3.58779 1.58593
206 1 18.3545 5.87798 1.58593
207 2 20.1035 5.34396 0
208 3 20.1035 5.34396 3.17185
209 1 16.2293 8.16817 1.58593
210 2 17.9782 7.63415 0
211 3 17.9782 7.63415 3.17185
212 1 14.104 10.4584 1.58593
213 2 15.853 9.92434 0
214 3 15.853 9.92434 3.17185
238 1 19.3511 8.85523 1.58593
239 2 21.1 8.3212 0
240 3 21.1 8.3212 3.17185
242 2 18.9747 10.6114 0
243 3 18.9747 10.6114 3.17185
387 4 13.5621 0.333581 7.89943
415 4 16.6546 1.33487 7.89943
416 5 18.4987 0.918035 6.22707
418 4 14.2142 3.58778 7.89943
419 5 16.0584 3.17094 6.22707
422 5 13.618 5.42385 6.22707
445 4 19.747 2.33617 7.89943
448 4 17.3067 4.58908 7.89943
449 5 19.1508 4.17224 6.22707
451 4 14.8663 6.84198 7.89943
452 5 16.7105 6.42515 6.22707
455 5 14.2701 8.67806 6.22707
478 4 20.3991 5.59037 7.89943
481 4 17.9588 7.84328 7.89943
482 5 19.8029 7.42644 6.22707
484 4 15.5184 10.0962 7.89943
485 5 17.3625 9.67935 6.22707
511 4 21.0512 8.84457 7.89943
515 5 20.455 10.6806 6.22707
200 1 22.605 1.2976 1.58593
201 2 24.354 0.763573 0
202 3 24.354 0.763573 3.17185
204 2 22.2287 3.05376 0
205 3 22.2287 3.05376 3.17185
229 1 25.7268 1.98466 1.58593
230 2 27.4758 1.45063 0
231 3 27.4758 1.45063 3.17185
232 1 23.6016 4.27485 1.58593
233 2 25.3505 3.74082 0
234 3 25.3505 3.74082 3.17185
235 1 21.4763 6.56504 1.58593
236 2 23.2253 6.03101 0
237 3 23.2253 6.03101 3.17185
257 1 28.8486 2.67171 1.58593
260 1 26.7234 4.9619 1.58593
261 2 28.4723 4.42788 0
262 3 28.4723 4.42788 3.17185
263 1 24.5981 7.2521 1.58593
264 2 26.347 6.71807 0
265 3 26.347 6.71807 3.17185
266 1 22.4728 9.54229 1.58593
267 2 24.2218 9.00826 0
268 3 24.2218 9.00826 3.17185
444 4 22.1874 0.083257 7.89943
446 5 21.5912 1.91933 6.22707
472 4 25.2799 1.08455 7.89943
473 5 27.124 0.667712 6.22707
475 4 22.8395 3.33746 7.89943
476 5 24.6837 2.92062 6.22707
479 5 22.2433 5.17353 6.22707
502 4 28.3723 2.08584 7.89943
505 4 25.932 4.33875 7.89943
506 5 27.7761 3.92191 6.22707
508 4 23.4916 6.59166 7.89943
509 5 25.3358 6.17482 6.22707
512 5 22.8954 8.42773 6.22707
535 4 29.0244 5.34005 7.89943
538 4 26.5841 7.59295 7.89943
539 4 24.1437 9.84586 7.89943
256 1 30.9739 0.381523 1.58593
258 2 30.5976 2.13769 0
259 3 30.5976 2.13769 3.17185
276 1 34.0957 1.06858 1.58593
277 2 35.8446 0.534553 0
278 3 35.8446 0.534553 3.17185
279 1 31.9704 3.35877 1.58593
280 2 33.7193 2.82474 0
281 3 33.7193 2.82474 3.17185
282 1 29.8452 5.64896 1.58593
503 5 30.2165 1.66901 6.22707
529 4 33.9052 0.834227 7.89943
530 5 35.7493 0.417389 6.22707
532 4 31.4648 3.08714 7.89943
533 5 33.309 2.6703 6.22707
536 5 30.8686 4.92321 6.22707
1 2 -19.7476 15.8788 0
2 3 -19.7476 15.8788 3.17185
3 1 -23.6218 18.7031 1.58593
4 2 -21.8729 18.169 0
5 3 -21.8729 18.169 3.17185
6 1 -25.7471 20.9932 1.58593
7 2 -23.9982 20.4592 0
8 3 -23.9982 20.4592 3.17185
26 1 -20.5001 19.3901 1.58593
29 2 -20.8764 21.1463 0
30 3 -20.8764 21.1463 3.17185
292 4 -20.7711 16.6046 7.89943
295 4 -23.2114 18.8575 7.89943
296 5 -21.3673 18.4407 6.22707
298 4 -25.6518 21.1104 7.89943
299 5 -23.8077 20.6936 6.22707
325 4 -20.119 19.8588 7.89943
17 1 -14.1243 12.5195 1.58593
18 2 -12.3753 11.9855 0
19 3 -12.3753 11.9855 3.17185
20 1 -16.2495 14.8097 1.58593
21 2 -14.5006 14.2757 0
22 3 -14.5006 14.2757 3.17185
23 1 -18.3748 17.0999 1.58593
24 2 -16.6259 16.5659 0
25 3 -16.6259 16.5659 3.17185
27 2 -18.7511 18.8561 0
28 3 -18.7511 18.8561 3.17185
49 1 -13.1277 15.4968 1.58593
50 2 -11.3788 14.9628 0
51 3 -11.3788 14.9628 3.17185
52 1 -15.253 17.787 1.58593
53 2 -13.5041 17.2529 0
54 3 -13.5041 17.2529 3.17185
55 1 -17.3783 20.0772 1.58593
56 2 -15.6293 19.5431 0
57 3 -15.6293 19.5431 3.17185
80 1 -12.1312 18.474 1.58593
83 1 -14.2565 20.7642 1.58593
84 2 -12.5075 20.2302 0
85 3 -12.5075 20.2302 3.17185
287 5 -14.0462 11.6819 6.22707
290 5 -16.4865 13.9348 6.22707
293 5 -18.9269 16.1878 6.22707
316 4 -12.7979 13.1001 7.89943
319 4 -15.2382 15.353 7.89943
320 5 -13.3941 14.9361 6.22707
322 4 -17.6786 17.6059 7.89943
323 5 -15.8345 17.189 6.22707
326 5 -18.2748 19.442 6.22707
349 4 -12.1458 16.3543 7.89943
352 4 -14.5861 18.6072 7.89943
353 5 -12.742 18.1903 6.22707
355 4 -17.0265 20.8601 7.89943
356 5 -15.1824 20.4432 6.22707
382 4 -11.4937 19.6085 7.89943
385 5 -12.0899 21.4445 6.22707
43 1 -8.87723 10.9164 1.58593
46 1 -11.0025 13.2066 1.58593
47 2 -9.25355 12.6726 0
48 3 -9.25355 12.6726 3.17185
71 1 -5.75545 11.6035 1.58593
72 2 -4.00651 11.0694 0
73 3 -4.00651 11.0694 3.17185
74 1 -7.8807 13.8936 1.58593
75 2 -6.13176 13.3596 0
76 3 -6.13176 13.3596 3.17185
77 1 -10.006 16.1838 1.58593
78 2 -8.25702 15.6498 0
79 3 -8.25702 15.6498 3.17185
81 2 -10.3823 17.94 0
82 3 -10.3823 17.94 3.17185
104 1 -4.75891 14.5807 1.58593
107 1 -6.88417 16.8709 1.58593
108 2 -5.13523 16.3369 0
109 3 -5.13523 16.3369 3.17185
110 1 -9.00943 19.1611 1.58593
111 2 -7.26049 18.6271 0
112 3 -7.26049 18.6271 3.17185
113 1 -11.1347 21.4513 1.58593
114 2 -9.38575 20.9173 0
115 3 -9.38575 20.9173 3.17185
137 1 -3.76238 17.558 1.58593
140 1 -5.88764 19.8481 1.58593
141 2 -4.1387 19.3141 0
142 3 -4.1387 19.3141 3.17185
313 4 -10.3575 10.8472 7.89943
317 5 -10.9537 12.6832 6.22707
343 4 -7.26504 11.8484 7.89943
344 5 -5.42088 11.4316 6.22707
346 4 -9.70541 14.1014 7.89943
347 5 -7.86125 13.6845 6.22707
350 5 -10.3016 15.9374 6.22707
373 4 -4.17258 12.8497 7.89943
376 4 -6.61294 15.1027 7.89943
377 5 -4.76879 14.6858 6.22707
379 4 -9.05331 17.3556 7.89943
380 5 -7.20915 16.9387 6.22707
383 5 -9.64952 19.1916 6.22707
406 4 -3.52048 16.1039 7.89943
409 4 -5.96085 18.3569 7.89943
410 5 -4.11669 17.94 6.22707
412 4 -8.40122 20.6098 7.89943
413 5 -6.55706 20.1929 6.22707
442 5 -3.46459 21.1942 6.22707
101 1 -2.63366 12.2905 1.58593
102 2 -0.884716 11.7565 0
103 3 -0.884716 11.7565 3.17185
105 2 -3.00997 14.0467 0
106 3 -3.00997 14.0467 3.17185
131 1 0.488132 12.9776 1.58593
132 2 2.23707 12.4435 0
133 3 2.23707 12.4435 3.17185
134 1 -1.63713 15.2678 1.58593
135 2 0.111815 14.7337 0
136 3 0.111815 14.7337 3.17185
138 2 -2.01344 17.0239 0
139 3 -2.01344 17.0239 3.17185
158 1 3.60992 13.6646 1.58593
161 1 1.48466 15.9548 1.58593
162 2 3.2336 15.4208 0
163 3 3.2336 15.4208 3.17185
164 1 -0.640594 18.245 1.58593
165 2 1.10835 17.711 0
166 3 1.10835 17.711 3.17185
167 1 -2.76585 20.5352 1.58593
168 2 -1.01691 20.0012 0
169 3 -1.01691 20.0012 3.17185
191 1 4.60645 16.6419 1.58593
194 1 2.4812 18.9321 1.58593
195 2 4.23013 18.398 0
196 3 4.23013 18.398 3.17185
197 1 0.355937 21.2223 1.58593
198 2 2.10488 20.6882 0
199 3 2.10488 20.6882 3.17185
374 5 -2.32842 12.4329 6.22707
400 4 1.36026 11.5981 7.89943
401 5 3.20442 11.1813 6.22707
403 4 -1.08011 13.851 7.89943
404 5 0.764048 13.4342 6.22707
407 5 -1.67632 15.6871 6.22707
430 4 4.45272 12.5994 7.89943
433 4 2.01235 14.8523 7.89943
434 5 3.85651 14.4355 6.22707
436 4 -0.428015 17.1052 7.89943
437 5 1.41614 16.6884 6.22707
439 4 -2.86838 19.3581 7.89943
440 5 -1.02422 18.9413 6.22707
466 4 2.66445 18.1065 7.89943
467 5 4.50861 17.6897 6.22707
469 4 0.224082 20.3594 7.89943
470 5 2.06824 19.9426 6.22707
499 4 3.31655 21.3607 7.89943
155 1 5.73518 11.3744 1.58593
156 2 7.48412 10.8404 0
157 3 7.48412 10.8404 3.17185
159 2 5.35886 13.1306 0
160 3 5.35886 13.1306 3.17185
185 1 8.85697 12.0615 1.58593
186 2 10.6059 11.5275 0
187 3 10.6059 11.5275 3.17185
188 1 6.73171 14.3517 1.58593
189 2 8.48065 13.8177 0
190 3 8.48065 13.8177 3.17185
192 2 6.35539 16.1079 0
193 3 6.35539 16.1079 3.17185
215 1 11.9788 12.7486 1.58593
218 1 9.8535 15.0387 1.58593
219 2 11.6024 14.5047 0
220 3 11.6024 14.5047 3.17185
221 1 7.72824 17.3289 1.58593
222 2 9.47718 16.7949 0
223 3 9.47718 16.7949 3.17185
224 1 5.60298 19.6191 1.58593
225 2 7.35192 19.0851 0
226 3 7.35192 19.0851 3.17185
227 2 5.22667 21.3753 0
228 3 5.22667 21.3753 3.17185
247 1 12.9753 15.7258 1.58593
250 1 10.85 18.016 1.58593
251 2 12.599 17.482 0
252 3 12.599 17.482 3.17185
253 1 8.72477 20.3062 1.58593
254 2 10.4737 19.7722 0
255 3 10.4737 19.7722 3.17185
431 5 6.29688 12.1826 6.22707
457 4 9.98556 11.3478 7.89943
458 5 11.8297 10.931 6.22707
460 4 7.54519 13.6007 7.89943
461 5 9.38935 13.1839 6.22707
463 4 5.10482 15.8536 7.89943
464 5 6.94898 15.4368 6.22707
487 4 13.078 12.3491 7.89943
490 4 10.6377 14.602 7.89943
491 5 12.4818 14.1852 6.22707
493 4 8.19728 16.8549 7.89943
494 5 10.0414 16.4381 6.22707
496 4 5.75691 19.1078 7.89943
497 5 7.60107 18.691 6.22707
500 5 5.1607 20.9439 6.22707
523 4 11.2897 17.8562 7.89943
524 5 13.1339 17.4394 6.22707
526 4 8.84938 20.1091 7.89943
527 5 10.6935 19.6923 6.22707
216 2 13.7277 12.2145 0
217 3 13.7277 12.2145 3.17185
241 1 17.2258 11.1454 1.58593
244 1 15.1005 13.4356 1.58593
245 2 16.8495 12.9016 0
246 3 16.8495 12.9016 3.17185
248 2 14.7242 15.1918 0
249 3 14.7242 15.1918 3.17185
269 1 20.3476 11.8325 1.58593
272 1 18.2223 14.1227 1.58593
273 2 19.9713 13.5886 0
274 3 19.9713 13.5886 3.17185
275 1 16.0971 16.4129 1.58593
289 4 19.263 14.3517 7.89943
488 5 14.9222 11.9323 6.22707
514 4 18.6109 11.0975 7.89943
517 4 16.1705 13.3504 7.89943
518 5 18.0146 12.9335 6.22707
520 4 13.7301 15.6033 7.89943
521 5 15.5743 15.1865 6.22707
270 2 22.0965 11.2985 0
271 3 22.0965 11.2985 3.17185
540 4 21.7033 12.0988 7.89943
286 6 -11.6058 9.42902 9.57178
284 6 -9.16544 7.17612 9.57178
309 6 -3.63261 5.9245 9.57178
312 6 -6.07298 8.17741 9.57178
315 6 -8.51335 10.4303 9.57178
303 6 1.24813 1.41868 9.57178
306 6 -1.19224 3.67159 9.57178
333 6 4.34059 2.41998 9.57178
336 6 1.90022 4.67288 9.57178
339 6 -0.540145 6.92579 9.57178
342 6 -2.98051 9.1787 9.57178
366 6 4.99269 5.67418 9.57178
369 6 2.55232 7.92709 9.57178
372 6 0.111951 10.18 9.57178
330 6 6.78096 0.167066 9.57178
360 6 9.87343 1.16836 9.57178
363 6 7.43306 3.42127 9.57178
390 6 12.9659 2.16965 9.57178
393 6 10.5255 4.42256 9.57178
396 6 8.08515 6.67547 9.57178
399 6 5.64478 8.92838 9.57178
426 6 11.1776 7.67676 9.57178
429 6 8.73725 9.92967 9.57178
417 6 18.4987 0.918035 9.57178
420 6 16.0584 3.17094 9.57178
423 6 13.618 5.42385 9.57178
450 6 19.1508 4.17224 9.57178
453 6 16.7105 6.42515 9.57178
456 6 14.2701 8.67806 9.57178
483 6 19.8029 7.42644 9.57178
486 6 17.3625 9.67935 9.57178
516 6 20.455 10.6806 9.57178
447 6 21.5912 1.91933 9.57178
474 6 27.124 0.667712 9.57178
477 6 24.6837 2.92062 9.57178
480 6 22.2433 5.17353 9.57178
507 6 27.7761 3.92191 9.57178
510 6 25.3358 6.17482 9.57178
513 6 22.8954 8.42773 9.57178
504 6 30.2165 1.66901 9.57178
531 6 35.7493 0.417389 9.57178
534 6 33.309 2.6703 9.57178
537 6 30.8686 4.92321 9.57178
297 6 -21.3673 18.4407 9.57178
300 6 -23.8077 20.6936 9.57178
288 6 -14.0462 11.6819 9.57178
291 6 -16.4865 13.9348 9.57178
294 6 -18.9269 16.1878 9.57178
321 6 -13.3941 14.9361 9.57178
324 6 -15.8345 17.189 9.57178
327 6 -18.2748 19.442 9.57178
354 6 -12.742 18.1903 9.57178
357 6 -15.1824 20.4432 9.57178
386 6 -12.0899 21.4445 9.57178
318 6 -10.9537 12.6832 9.57178
345 6 -5.42088 11.4316 9.57178
348 6 -7.86125 13.6845 9.57178
351 6 -10.3016 15.9374 9.57178
378 6 -4.76879 14.6858 9.57178
381 6 -7.20915 16.9387 9.57178
384 6 -9.64952 19.1916 9.57178
411 6 -4.11669 17.94 9.57178
414 6 -6.55706 20.1929 9.57178
443 6 -3.46459 21.1942 9.57178
375 6 -2.32842 12.4329 9.57178
402 6 3.20442 11.1813 9.57178
405 6 0.764048 13.4342 9.57178
408 6 -1.67632 15.6871 9.57178
435 6 3.85651 14.4355 9.57178
438 6 1.41614 16.6884 9.57178
441 6 -1.02422 18.9413 9.57178
468 6 4.50861 17.6897 9.57178
471 6 2.06824 19.9426 9.57178
432 6 6.29688 12.1826 9.57178
459 6 11.8297 10.931 9.57178
462 6 9.38935 13.1839 9.57178
465 6 6.94898 15.4368 9.57178
492 6 12.4818 14.1852 9.57178
495 6 10.0414 16.4381 9.57178
498 6 7.60107 18.691 9.57178
501 6 5.1607 20.9439 9.57178
525 6 13.1339 17.4394 9.57178
528 6 10.6935 19.6923 9.57178
489 6 14.9222 11.9323 9.57178
519 6 18.0146 12.9335 9.57178
522 6 15.5743 15.1865 9.57178
ITEM: TIMESTEP
1
ITEM: NUMBER OF ATOMS
540
ITEM: BOX BOUNDS xy xz yz pp pp pp
-2.7496150547204270e+01 3.7593658013431089e+01 -2.7496150547204270e+01
0.0000000000000000e+00 2.1527795248303640e+01 0.0000000000000000e+00
0.0000000000000000e+00 1.0000000000000000e+02 0.0000000000000000e+00
ITEM: ATOMS id type x y z
14 1 -11.999 10.2293 1.58593
285 5 -11.6058 9.42901 6.22712
9 2 -5.99957 5.11498 0.000185531
10 3 -5.99951 5.11499 3.17156
11 1 -9.87376 7.93913 1.58593
12 2 -8.12483 7.40517 0.000185531
13 3 -8.12478 7.40518 3.17161
15 2 -10.2501 9.69536 0.00018553
16 3 -10.2501 9.69536 3.17165
37 1 -4.62672 6.33599 1.58592
40 1 -6.75197 8.62618 1.58593
41 2 -5.00304 8.09223 0.000185531
42 3 -5.00299 8.09222 3.17162
44 2 -7.12829 10.3824 0.000185532
45 3 -7.12827 10.3824 3.17165
68 1 -3.63019 9.31324 1.58593
283 5 -9.16546 7.17609 6.22713
307 4 -5.47678 6.34137 7.89943
308 5 -3.63263 5.92449 6.22715
310 4 -7.91715 8.59427 7.89943
311 5 -6.07299 8.17739 6.22713
314 5 -8.51335 10.4303 6.22712
340 4 -4.82468 9.59557 7.89943
31 1 -0.376203 1.75561 1.58592
32 2 1.37274 1.22165 0.000185531
33 3 1.37275 1.22163 3.17149
34 1 -2.50146 4.0458 1.58592
35 2 -0.752523 3.51184 0.000185531
36 3 -0.752478 3.51183 3.17152
38 2 -2.87778 5.80203 0.000185532
39 3 -2.87772 5.80202 3.17157
58 1 4.87084 0.152476 1.58592
59 1 2.74559 2.44267 1.58592
60 2 4.49452 1.90871 0.000185531
61 3 4.49454 1.90866 3.17153
62 1 0.620329 4.73286 1.58592
63 2 2.36927 4.1989 0.000185531
64 3 2.36931 4.19886 3.17155
65 1 -1.50493 7.02305 1.58592
66 2 0.244009 6.48909 0.000185531
67 3 0.24406 6.48906 3.17159
69 2 -1.88125 8.77928 0.000185531
70 3 -1.88121 8.77927 3.17163
92 1 3.74212 5.41991 1.58592
95 1 1.61686 7.71011 1.58593
96 2 3.3658 7.17615 0.000185531
97 3 3.36583 7.17612 3.17162
98 1 -0.508397 10.0003 1.58593
99 2 1.24054 9.46634 0.000185531
100 3 1.24057 9.46632 3.17165
125 1 4.73865 8.39716 1.58593
128 1 2.61339 10.6874 1.58593
129 2 4.36233 10.1534 0.000185532
130 3 4.36234 10.1534 3.17166
301 4 -0.596039 1.83555 7.89943
302 5 1.24813 1.41867 6.22718
304 4 -3.03641 4.08846 7.89943
305 5 -1.19225 3.67158 6.22717
328 4 4.93679 0.583932 7.89943
331 4 2.49643 2.83684 7.89943
332 5 4.34059 2.41998 6.22717
334 4 0.0560562 5.08975 7.89943
335 5 1.90021 4.67288 6.22716
337 4 -2.38431 7.34266 7.89943
338 5 -0.540161 6.92579 6.22714
341 5 -2.98052 9.17869 6.22712
364 4 3.14852 6.09104 7.89943
365 5 4.99268 5.67418 6.22714
367 4 0.708152 8.34395 7.89943
368 5 2.55231 7.92708 6.22713
370 4 -1.73222 10.5969 7.89943
371 5 0.111946 10.18 6.22712
397 4 3.80062 9.34524 7.89943
86 1 7.99263 0.839532 1.58592
87 2 9.74157 0.305575 0.000185531
88 3 9.74156 0.305517 3.17158
89 1 5.86737 3.12972 1.58592
90 2 7.61631 2.59577 0.00018553
91 3 7.61633 2.59571 3.17158
93 2 5.49106 4.88596 0.000185531
94 3 5.49109 4.88591 3.17159
116 1 11.1144 1.52659 1.58592
117 2 12.8634 0.992633 0.000185531
118 3 12.8634 0.992592 3.17163
119 1 8.98916 3.81678 1.58592
120 2 10.7381 3.28282 0.000185532
121 3 10.7381 3.28278 3.17163
122 1 6.86391 6.10697 1.58593
123 2 8.61284 5.57302 0.000185532
124 3 8.61286 5.57298 3.17164
126 2 6.48759 7.86321 0.000185531
127 3 6.4876 7.86318 3.17165
146 1 12.111 4.50384 1.58593
149 1 9.98569 6.79403 1.58593
150 2 11.7346 6.26007 0.000185531
151 3 11.7346 6.26005 3.17166
152 1 7.86044 9.08422 1.58593
153 2 9.60937 8.55026 0.000185531
154 3 9.60937 8.55025 3.17166
179 1 13.1075 7.48109 1.58593
182 1 10.9822 9.77128 1.58593
183 2 12.7312 9.23732 0.000185531
184 3 12.7312 9.23732 3.17167
329 5 6.78097 0.16707 6.22716
358 4 8.02926 1.58523 7.89943
359 5 9.87343 1.16837 6.22714
361 4 5.58889 3.83813 7.89943
362 5 7.43306 3.42127 6.22714
388 4 11.1217 2.58652 7.89943
389 5 12.9659 2.16965 6.22712
391 4 8.68135 4.83943 7.89943
392 5 10.5255 4.42256 6.22713
394 4 6.24099 7.09234 7.89943
395 5 8.08515 6.67547 6.22712
398 5 5.64478 8.92837 6.22712
421 4 11.7738 5.84072 7.89943
424 4 9.33345 8.09363 7.89943
425 5 11.1776 7.67675 6.22711
427 4 6.89308 10.3465 7.89943
428 5 8.73726 9.92965 6.22712
454 4 12.4259 9.09492 7.89943
143 1 14.2362 2.21365 1.58593
144 2 15.9851 1.67969 0.000185531
145 3 15.9851 1.67967 3.17166
147 2 13.8599 3.96988 0.000185531
148 3 13.8599 3.96986 3.17166
170 1 19.4833 0.610515 1.58593
171 2 21.2322 0.0765562 0.000185531
172 3 21.2322 0.0765752 3.17165
173 1 17.358 2.90071 1.58593
174 2 19.1069 2.36675 0.000185531
175 3 19.1069 2.36676 3.17166
176 1 15.2327 5.1909 1.58593
177 2 16.9817 4.65694 0.00018553
178 3 16.9817 4.65694 3.17167
180 2 14.8564 6.94713 0.000185531
181 3 14.8564 6.94713 3.17167
203 1 20.4798 3.58776 1.58593
206 1 18.3545 5.87795 1.58593
207 2 20.1035 5.344 0.000185532
208 3 20.1035 5.34401 3.17166
209 1 16.2293 8.16814 1.58593
210 2 17.9782 7.63419 0.000185531
211 3 17.9782 7.63419 3.17167
212 1 14.104 10.4583 1.58593
213 2 15.853 9.92438 0.000185531
214 3 15.8529 9.92438 3.17166
238 1 19.3511 8.8552 1.58593
239 2 21.1 8.32124 0.000185531
240 3 21.1 8.32125 3.17166
242 2 18.9747 10.6114 0.000185531
243 3 18.9747 10.6114 3.17166
387 4 13.5621 0.333609 7.89943
415 4 16.6546 1.3349 7.89943
416 5 18.4987 0.918018 6.22712
418 4 14.2142 3.58781 7.89943
419 5 16.0584 3.17093 6.22711
422 5 13.618 5.42384 6.22711
445 4 19.747 2.33619 7.89943
448 4 17.3067 4.5891 7.89943
449 5 19.1508 4.17222 6.22711
451 4 14.8663 6.84201 7.89943
452 5 16.7105 6.42513 6.22711
455 5 14.2701 8.67804 6.22711
478 4 20.3991 5.5904 7.89943
481 4 17.9588 7.8433 7.89943
482 5 19.8029 7.42642 6.22711
484 4 15.5184 10.0962 7.89943
485 5 17.3626 9.67933 6.22711
511 4 21.0512 8.8446 7.89943
515 5 20.455 10.6806 6.22711
200 1 22.605 1.29757 1.58593
201 2 24.354 0.763614 0.000185531
202 3 24.354 0.763657 3.17163
204 2 22.2287 3.05381 0.000185531
205 3 22.2287 3.05383 3.17164
229 1 25.7268 1.98463 1.58592
230 2 27.4758 1.45067 0.000185531
231 3 27.4758 1.45072 3.17158
232 1 23.6016 4.27482 1.58592
233 2 25.3505 3.74086 0.000185531
234 3 25.3505 3.7409 3.17161
235 1 21.4763 6.56501 1.58593
236 2 23.2253 6.03105 0.000185531
237 3 23.2253 6.03108 3.17164
257 1 28.8486 2.67169 1.58592
260 1 26.7234 4.96188 1.58592
261 2 28.4723 4.42792 0.000185531
262 3 28.4723 4.42795 3.17158
263 1 24.5981 7.25207 1.58593
264 2 26.347 6.71811 0.000185531
265 3 26.3471 6.71813 3.17163
266 1 22.4728 9.54226 1.58593
267 2 24.2218 9.0083 0.000185531
268 3 24.2218 9.00831 3.17165
444 4 22.1874 0.0832839 7.89943
446 5 21.5912 1.9193 6.22712
472 4 25.2799 1.08458 7.89943
473 5 27.124 0.667674 6.22714
475 4 22.8395 3.33749 7.89943
476 5 24.6836 2.92059 6.22713
479 5 22.2433 5.17351 6.22712
502 4 28.3723 2.08587 7.89943
505 4 25.932 4.33878 7.89943
506 5 27.7761 3.92188 6.22714
508 4 23.4916 6.59169 7.89943
509 5 25.3357 6.1748 6.22713
512 5 22.8954 8.42771 6.22712
535 4 29.0244 5.34007 7.89943
538 4 26.584 7.59298 7.89943
539 4 24.1437 9.84589 7.89943
256 1 30.9739 0.381497 1.58592
258 2 30.5976 2.13773 0.000185531
259 3 30.5976 2.13777 3.17154
276 1 34.0957 1.06855 1.58592
277 2 35.8446 0.534594 0.000185532
278 3 35.8446 0.534608 3.17148
279 1 31.9704 3.35874 1.58592
280 2 33.7193 2.82479 0.00018553
281 3 33.7194 2.8248 3.17151
282 1 29.8452 5.64893 1.58592
503 5 30.2165 1.66897 6.22716
529 4 33.9052 0.834254 7.89943
530 5 35.7493 0.417367 6.22718
532 4 31.4648 3.08716 7.89943
533 5 33.3089 2.67027 6.22717
536 5 30.8686 4.92318 6.22715
1 2 -19.7476 15.8789 0.000185531
2 3 -19.7477 15.8789 3.17158
3 1 -23.6218 18.703 1.58592
4 2 -21.8729 18.1691 0.000185531
5 3 -21.8729 18.169 3.17153
6 1 -25.7471 20.9932 1.58592
7 2 -23.9982 20.4593 0.000185532
8 3 -23.9982 20.4592 3.1715
26 1 -20.5001 19.3901 1.58592
29 2 -20.8764 21.1463 0.000185531
30 3 -20.8764 21.1463 3.17153
292 4 -20.7711 16.6046 7.89943
295 4 -23.2115 18.8575 7.89943
296 5 -21.3673 18.4407 6.22716
298 4 -25.6518 21.1104 7.89943
299 5 -23.8076 20.6936 6.22718
325 4 -20.119 19.8588 7.89943
17 1 -14.1243 12.5195 1.58593
18 2 -12.3753 11.9855 0.000185531
19 3 -12.3753 11.9855 3.17166
20 1 -16.2495 14.8097 1.58593
21 2 -14.5006 14.2757 0.000185531
22 3 -14.5006 14.2757 3.17164
23 1 -18.3748 17.0999 1.58592
24 2 -16.6259 16.5659 0.00018553
25 3 -16.6259 16.5659 3.17161
27 2 -18.7511 18.8561 0.000185531
28 3 -18.7512 18.8561 3.17156
49 1 -13.1277 15.4968 1.58593
50 2 -11.3788 14.9628 0.000185531
51 3 -11.3788 14.9628 3.17166
52 1 -15.253 17.7869 1.58593
53 2 -13.5041 17.253 0.000185532
54 3 -13.5041 17.253 3.17163
55 1 -17.3783 20.0771 1.58592
56 2 -15.6293 19.5432 0.000185531
57 3 -15.6293 19.5431 3.17161
80 1 -12.1312 18.474 1.58593
83 1 -14.2565 20.7642 1.58593
84 2 -12.5075 20.2302 0.000185531
85 3 -12.5075 20.2302 3.17164
287 5 -14.0462 11.6819 6.22711
290 5 -16.4865 13.9348 6.22712
293 5 -18.9269 16.1877 6.22714
316 4 -12.7979 13.1001 7.89943
319 4 -15.2383 15.353 7.89943
320 5 -13.3941 14.9361 6.22712
322 4 -17.6786 17.6059 7.89943
323 5 -15.8344 17.189 6.22713
326 5 -18.2748 19.442 6.22715
349 4 -12.1458 16.3543 7.89943
352 4 -14.5862 18.6072 7.89943
353 5 -12.742 18.1903 6.22712
355 4 -17.0265 20.8601 7.89943
356 5 -15.1823 20.4432 6.22713
382 4 -11.4937 19.6085 7.89943
385 5 -12.0899 21.4445 6.22712
43 1 -8.87723 10.9164 1.58593
46 1 -11.0025 13.2066 1.58593
47 2 -9.25355 12.6726 0.000185532
48 3 -9.25355 12.6726 3.17166
71 1 -5.75544 11.6034 1.58593
72 2 -4.00651 11.0695 0.000185531
73 3 -4.00648 11.0695 3.17166
74 1 -7.8807 13.8936 1.58593
75 2 -6.13176 13.3597 0.000185531
76 3 -6.13176 13.3597 3.17167
77 1 -10.006 16.1838 1.58593
78 2 -8.25702 15.6499 0.000185531
79 3 -8.25703 15.6498 3.17167
81 2 -10.3823 17.94 0.000185531
82 3 -10.3823 17.94 3.17166
104 1 -4.75891 14.5807 1.58593
107 1 -6.88417 16.8709 1.58593
108 2 -5.13523 16.3369 0.000185531
109 3 -5.13524 16.3369 3.17167
110 1 -9.00943 19.1611 1.58593
111 2 -7.26049 18.6271 0.000185531
112 3 -7.26049 18.6271 3.17166
113 1 -11.1347 21.4513 1.58593
114 2 -9.38575 20.9173 0.000185531
115 3 -9.38575 20.9173 3.17166
137 1 -3.76238 17.5579 1.58593
140 1 -5.88764 19.8481 1.58593
141 2 -4.1387 19.3142 0.000185532
142 3 -4.1387 19.3142 3.17165
313 4 -10.3575 10.8472 7.89943
317 5 -10.9537 12.6832 6.22711
343 4 -7.26505 11.8485 7.89943
344 5 -5.42089 11.4316 6.22711
346 4 -9.70542 14.1014 7.89943
347 5 -7.86125 13.6845 6.22711
350 5 -10.3016 15.9374 6.22711
373 4 -4.17258 12.8498 7.89943
376 4 -6.61295 15.1027 7.89943
377 5 -4.76878 14.6858 6.22711
379 4 -9.05332 17.3556 7.89943
380 5 -7.20915 16.9387 6.22711
383 5 -9.64951 19.1916 6.22712
406 4 -3.52049 16.104 7.89943
409 4 -5.96086 18.3569 7.89943
410 5 -4.11668 17.94 6.22712
412 4 -8.40122 20.6098 7.89943
413 5 -6.55705 20.1929 6.22712
442 5 -3.46459 21.1942 6.22713
101 1 -2.63366 12.2905 1.58593
102 2 -0.884717 11.7565 0.000185531
103 3 -0.884705 11.7565 3.17166
105 2 -3.00997 14.0467 0.000185531
106 3 -3.00997 14.0467 3.17167
131 1 0.488133 12.9775 1.58593
132 2 2.23707 12.4436 0.000185532
133 3 2.23707 12.4436 3.17166
134 1 -1.63712 15.2677 1.58593
135 2 0.111814 14.7338 0.000185531
136 3 0.111806 14.7338 3.17166
138 2 -2.01344 17.024 0.000185532
139 3 -2.01345 17.024 3.17165
158 1 3.60992 13.6646 1.58593
161 1 1.48466 15.9548 1.58593
162 2 3.2336 15.4208 0.000185531
163 3 3.23358 15.4209 3.17163
164 1 -0.640594 18.245 1.58593
165 2 1.10835 17.711 0.000185531
166 3 1.10833 17.7111 3.17162
167 1 -2.76585 20.5352 1.58593
168 2 -1.01691 20.0012 0.000185531
169 3 -1.01691 20.0013 3.17161
191 1 4.60645 16.6419 1.58592
194 1 2.4812 18.932 1.58592
195 2 4.23013 18.3981 0.000185531
196 3 4.23011 18.3981 3.17156
197 1 0.355938 21.2222 1.58592
198 2 2.10488 20.6883 0.000185531
199 3 2.10488 20.6883 3.17156
374 5 -2.32842 12.4329 6.22711
400 4 1.36025 11.5982 7.89943
401 5 3.20442 11.1813 6.22712
403 4 -1.08012 13.8511 7.89943
404 5 0.764054 13.4342 6.22711
407 5 -1.67631 15.6871 6.22712
430 4 4.45272 12.5994 7.89943
433 4 2.01235 14.8524 7.89943
434 5 3.85653 14.4355 6.22712
436 4 -0.428023 17.1053 7.89943
437 5 1.41615 16.6884 6.22713
439 4 -2.86839 19.3582 7.89943
440 5 -1.02422 18.9413 6.22713
466 4 2.66444 18.1066 7.89943
467 5 4.50862 17.6897 6.22715
469 4 0.224074 20.3595 7.89943
470 5 2.06824 19.9426 6.22715
499 4 3.31654 21.3608 7.89943
155 1 5.73518 11.3744 1.58593
156 2 7.48412 10.8405 0.000185531
157 3 7.48411 10.8405 3.17166
159 2 5.35886 13.1306 0.000185531
160 3 5.35884 13.1307 3.17165
185 1 8.85697 12.0615 1.58593
186 2 10.6059 11.5275 0.000185531
187 3 10.6059 11.5275 3.17165
188 1 6.73171 14.3517 1.58593
189 2 8.48065 13.8177 0.000185531
190 3 8.48061 13.8177 3.17162
192 2 6.35539 16.1079 0.000185531
193 3 6.35535 16.1079 3.17159
215 1 11.9788 12.7485 1.58592
218 1 9.8535 15.0387 1.58592
219 2 11.6024 14.5048 0.000185531
220 3 11.6024 14.5048 3.17159
221 1 7.72824 17.3289 1.58592
222 2 9.47718 16.795 0.00018553
223 3 9.47713 16.795 3.17155
224 1 5.60298 19.6191 1.58592
225 2 7.35192 19.0851 0.000185531
226 3 7.3519 19.0852 3.17152
227 2 5.22667 21.3753 0.000185531
228 3 5.22667 21.3754 3.17151
247 1 12.9753 15.7258 1.58592
250 1 10.85 18.016 1.58592
251 2 12.599 17.482 0.000185531
252 3 12.5989 17.482 3.17153
253 1 8.72477 20.3062 1.58592
254 2 10.4737 19.7722 0.000185531
255 3 10.4737 19.7722 3.17149
431 5 6.29689 12.1826 6.22712
457 4 9.98555 11.3478 7.89943
458 5 11.8297 10.9309 6.22712
460 4 7.54518 13.6007 7.89943
461 5 9.38937 13.1838 6.22713
463 4 5.10481 15.8536 7.89943
464 5 6.949 15.4367 6.22714
487 4 13.078 12.3491 7.89943
490 4 10.6376 14.602 7.89943
491 5 12.4818 14.1851 6.22714
493 4 8.19728 16.8549 7.89943
494 5 10.0415 16.438 6.22716
496 4 5.75691 19.1078 7.89943
497 5 7.60109 18.6909 6.22717
500 5 5.16071 20.9439 6.22717
523 4 11.2897 17.8562 7.89943
524 5 13.1339 17.4393 6.22716
526 4 8.84937 20.1091 7.89943
527 5 10.6936 19.6923 6.22718
216 2 13.7277 12.2146 0.000185532
217 3 13.7277 12.2146 3.17164
241 1 17.2258 11.1454 1.58593
244 1 15.1005 13.4356 1.58592
245 2 16.8495 12.9016 0.000185531
246 3 16.8494 12.9016 3.17163
248 2 14.7242 15.1918 0.000185531
249 3 14.7242 15.1918 3.17158
269 1 20.3476 11.8325 1.58593
272 1 18.2223 14.1226 1.58592
273 2 19.9713 13.5887 0.000185531
274 3 19.9712 13.5887 3.17163
275 1 16.0971 16.4128 1.58592