LAMMPS data file via write_data, version 27 Jun 2024, timestep = 228, units = metal

540 atoms
6 atom types

0 37.59365801343109 xlo xhi
0 21.52779524830364 ylo yhi
0 100 zlo zhi
-27.49615054720427 0 0 xy xz yz

Masses

1 95.95
2 32.06
3 32.06
4 95.95
5 78.971
6 78.971

Atoms # atomic

14 1 -11.97167239302914 10.227284088853505 1.5870187700227234 0 0 0
285 5 -11.630090444090309 9.403756537996244 6.306375417975875 0 0 0
9 2 -5.959360295166053 5.217644401313185 99.84392936954366 0 0 -1
10 3 -5.897475019082463 5.141275473671139 2.952936756444161 0 0 0
11 1 -9.815384644082064 7.968650997335895 1.534997358451075 0 0 0
12 2 -8.08242712717822 7.499549507824507 99.94278732882982 0 0 -1
13 3 -8.031968684277885 7.4244301975913185 3.052773451348582 0 0 0
15 2 -10.219871755854399 9.754472406965744 0.015431073473330694 0 0 0
16 3 -10.198080810469186 9.702723135976772 3.126496612934462 0 0 0
37 1 -4.548078505306886 6.373315821849039 1.4124360790246049 0 0 0
40 1 -6.678279017784933 8.658488237366019 1.5138197209182491 0 0 0
41 2 -4.944295825740201 8.191470923800802 99.92478834065498 0 0 -1
42 3 -4.907309221441465 8.08782979998551 3.0339757338885143 0 0 0
44 2 -7.082609987250107 10.460708522362628 0.011273108550264557 0 0 0
45 3 -7.059804886054191 10.381736766140227 3.121711222552368 0 0 0
68 1 -3.5566718754242213 9.344200473817223 1.5108827012561272 0 0 0
283 5 28.378722348037602 7.12647982172619 6.31343229398183 -1 0 0
307 4 -5.5359185574631224 6.315996296168759 7.9743379612796375 0 0 0
308 5 -3.6897833477300535 5.8827374684355185 6.32223738303444 0 0 0
310 4 -7.968917185092075 8.574834948034846 7.962284087701887 0 0 0
311 5 -6.1290609212734415 8.134208608716108 6.306635228850046 0 0 0
314 5 -8.548446619715454 10.403257176535913 6.300764751615012 0 0 0
340 4 -4.877021253929328 9.57489272682075 7.957398699136392 0 0 0
31 1 -0.3497093332631974 1.7561505540398883 1.2518695902947488 0 0 0
32 2 1.4012660646539656 1.227903914275867 99.70094415665461 0 0 -1
33 3 1.3731129921087624 1.192825590265068 2.8098464331878747 0 0 0
34 1 -2.4410697873753553 4.0710180556894935 1.3138767718659372 0 0 0
35 2 -0.704254113299241 3.5695136320873715 99.73869223313187 0 0 -1
36 3 -0.6984726891135664 3.489129392992923 2.8471224343912125 0 0 0
38 2 -2.8181251174411464 5.894249391867255 99.82303205853312 0 0 -1
39 3 -2.7873276660556283 5.788480559840271 2.931333241323257 0 0 0
58 1 4.857276201531267 0.08592978636717521 1.3056468140399449 0 0 0
59 1 2.7676996063808446 2.404640335916853 1.2918860877296088 0 0 0
60 2 4.541457565926935 1.8870070411729232 99.76655519538349 0 0 -1
61 3 4.468137771018923 1.8313736872771698 2.874460276219366 0 0 0
62 1 0.6747352921457733 4.726263520623363 1.3328947928095178 0 0 0
63 2 2.4306181388325956 4.224907619569059 99.78165585961753 0 0 -1
64 3 2.393711710174922 4.132215217292961 2.8896004505596933 0 0 0
65 1 -1.4310564326923545 7.042051325457721 1.4151235514525673 0 0 0
66 2 0.3095801290526594 6.554803282455984 99.84230937543754 0 0 -1
67 3 0.309405779942619 6.44331296197526 2.9506165979355408 0 0 0
69 2 -1.8225293587615061 8.865222690005822 99.92793965943129 0 0 -1
70 3 -1.7985589731101936 8.759643653191107 3.0372022887932504 0 0 0
92 1 3.7800480601522777 5.384235975872628 1.3955606883325258 0 0 0
95 1 1.6713725549654612 7.7092017938282416 1.4462583694101254 0 0 0
96 2 3.4203941453547655 7.204109132267602 99.89015450305072 0 0 -1
97 3 3.397160606615462 7.11509478995162 2.99948880918904 0 0 0
98 1 -0.4518189607193956 10.026812460917153 1.5164792181682625 0 0 0
99 2 1.2817345777121953 9.522482090265573 99.94189102236618 0 0 -1
100 3 1.2956803388730573 9.445517910234297 3.0522428893505027 0 0 0
125 1 4.762851883452064 8.378776467905874 1.4903606118055661 0 0 0
128 1 2.639852558462953 10.706055609331866 1.519072270415251 0 0 0
129 2 4.373780081851802 10.169256364639915 99.95542735167113 0 0 -1
130 3 4.37971718697637 10.143858566405166 3.0668457311132022 0 0 0
301 4 -0.618476063125106 1.8372257878986331 8.005245723486969 0 0 0
302 5 1.2379575033677823 1.4230329178660215 6.351855608765468 0 0 0
304 4 -3.0839532265119156 4.071386964218579 7.991455939041985 0 0 0
305 5 -1.2312861096187815 3.648120541718343 6.3403587281365885 0 0 0
328 4 4.9447729484412415 0.6350373804649603 8.007026039979516 0 0 0
331 4 2.477735818478524 2.8655757414673046 8.002014131374512 0 0 0
332 5 4.332760298976659 2.4515471551600583 6.34730317917002 0 0 0
334 4 0.013367320014684367 5.093854429291493 7.987539728310492 0 0 0
335 5 1.8669599256661864 4.676075329495286 6.335354790633977 0 0 0
337 4 -2.440117366555849 7.327912801309837 7.969634674843365 0 0 0
338 5 -0.5901798315034106 6.903759141507643 6.317578124576665 0 0 0
341 5 -3.032085672867777 9.143776762701668 6.30235955949366 0 0 0
364 4 3.118954097966795 6.113619268959184 7.982123038924444 0 0 0
365 5 4.972734277307012 5.698018668707539 6.32832625986307 0 0 0
367 4 0.6667762150500746 8.33963996988365 7.966411048624359 0 0 0
368 5 2.5200231077275737 7.922795436952002 6.313327085531832 0 0 0
370 4 -1.7736576404607494 10.57493453604808 7.955995471692036 0 0 0
371 5 0.076938906205842 10.152978862002081 6.301215038348968 0 0 0
397 4 3.7823382772864735 9.349998447764087 7.964803072844498 0 0 0
86 1 7.976849416557422 0.7495835845275995 1.4092478316344177 0 0 0
87 2 9.774197037645221 0.23890403061305387 99.91199366466492 0 0 -1
88 3 9.667955920720342 0.2092247906517288 3.019825529027254 0 0 0
89 1 5.879301635711326 3.061574036656484 1.3815886318163433 0 0 0
90 2 7.665850353576743 2.551937622601823 99.8716224081982 0 0 -1
91 3 7.571938943351185 2.493314067999658 2.979331460134852 0 0 0
93 2 5.548954293358774 4.877248259447551 99.86362017625505 0 0 -1
94 3 5.485520167609326 4.7954500462131335 2.9719137985098443 0 0 0
116 1 11.09641342913932 1.4356147629170308 1.5243693700946515 0 0 0
117 2 12.888228088978513 0.9376418918683658 0.017018626709210217 0 0 0
118 3 12.80546430659201 0.9109668537001476 3.1257436786215678 0 0 0
119 1 8.987326435180329 3.735615244080659 1.4913677758573642 0 0 0
120 2 10.774056072869621 3.2299965027271034 99.98150955374044 0 0 -1
121 3 10.689790975466135 3.1873755312179846 3.0901582352130927 0 0 0
122 1 6.877824204931215 6.052048400395097 1.4794830144732694 0 0 0
123 2 8.651191500446172 5.535945664810249 99.95698761612968 0 0 -1
124 3 8.583861394894953 5.485709404098117 3.0663704835370726 0 0 0
126 2 6.516879805990266 7.851039998439531 99.9480195917508 0 0 -1
127 3 6.482509089045649 7.806886775852157 3.0586241080740035 0 0 0
146 1 12.097289059642346 4.430001626470834 1.5862621064742934 0 0 0
149 1 9.974916639765663 6.733623711772987 1.557344838255641 0 0 0
150 2 11.745123402211082 6.209027899897966 0.033031497939139016 0 0 0
151 3 11.694284329311348 6.199062229053814 3.1434190227884122 0 0 0
152 1 7.850890489853637 9.053067678345064 1.5309375205176812 0 0 0
153 2 9.607123429934283 8.505562808907916 99.99710592689685 0 0 -1
154 3 9.573245516985956 8.513648683938447 3.1082652510158946 0 0 0
179 1 13.079439624594876 7.42724846956146 1.607974490350338 0 0 0
182 1 10.944616395389046 9.732087199826388 1.5566599297246801 0 0 0
183 2 12.702192268384891 9.174693176395479 0.025552323932293702 0 0 0
184 3 12.675427618773467 9.224074814680815 3.136546462916963 0 0 0
329 5 6.799625504429329 0.22088316019082785 6.349481478855129 0 0 0
358 4 8.038128306187017 1.6524733002899967 8.003068196311188 0 0 0
359 5 9.889853450177663 1.2281643752810372 6.346496738246659 0 0 0
361 4 5.578129390511206 3.8874204302906503 7.995805548088662 0 0 0
362 5 7.431175666067666 3.468914543483079 6.340461950132509 0 0 0
388 4 11.13114946638481 2.654031459192022 8.000050852625051 0 0 0
389 5 12.978797375416171 2.2159835226711184 6.345122114082969 0 0 0
391 4 8.681142484161636 4.897544898810626 7.989408246412314 0 0 0
392 5 10.531547168344328 4.469324502511628 6.3345458193985325 0 0 0
394 4 6.2305786627964475 7.127087881740365 7.976553299374285 0 0 0
395 5 8.083929812761806 6.708567902321478 6.321648573866617 0 0 0
398 5 5.6380854937260905 8.936883492113026 6.310265766227794 0 0 0
421 4 11.783026041304877 5.895100690386306 7.984444556866026 0 0 0
424 4 9.343109276876453 8.133285817792862 7.972156924053056 0 0 0
425 5 11.194956707791404 7.7076672938830635 6.316763565108102 0 0 0
427 4 6.9009084751128364 10.359566158038525 7.964818478137091 0 0 0
428 5 8.757688330919054 9.945849534662182 6.308825020884055 0 0 0
454 4 12.4505388027198 9.13412722100187 7.969294810294205 0 0 0
143 1 14.219161289306225 2.144573457294616 1.61426291240605 0 0 0
144 2 15.994233414082371 1.650992340442039 0.08445171502291737 0 0 0
145 3 15.956730771274156 1.640757481824783 3.1941807207335584 0 0 0
147 2 13.87380383023757 3.924899181216236 0.06286247875106012 0 0 0
148 3 13.822774518697162 3.9090952780837087 3.1726978915032853 0 0 0
170 1 19.478117266142167 0.6062723453720293 1.6533746421531836 0 0 0
171 2 21.219314119991406 0.10916770077356873 0.08326438675447266 0 0 0
172 3 21.257345212388703 0.12593193973811098 3.1931794869502395 0 0 0
173 1 17.348194469351792 2.8682433439716837 1.6546223976779981 0 0 0
174 2 19.10141883755879 2.3734603400218726 0.09763342917471454 0 0 0
175 3 19.11538956949603 2.380889816378608 3.2078632116786228 0 0 0
176 1 15.215114426046897 5.1398845951974845 1.640944581158183 0 0 0
177 2 16.976413621204433 4.634617888340373 0.09685056128609355 0 0 0
178 3 16.967786846497706 4.642667235103991 3.2074051402237944 0 0 0
180 2 14.842640950567597 6.899155825797582 0.07370952699664782 0 0 0
181 3 14.818505529237147 6.922108021784537 3.1845871497304232 0 0 0
203 1 20.484736191445144 3.593928101470855 1.6403189276338996 0 0 0
206 1 18.344245404916563 5.855613085939886 1.6485104690354733 0 0 0
207 2 20.091085188793183 5.353419293913318 0.08350145008873638 0 0 0
208 3 20.119787185725087 5.369200352566682 3.1943557657867223 0 0 0
209 1 16.197228545323526 8.12731228784128 1.6247585722629343 0 0 0
210 2 17.954003479149936 7.604118870205896 0.07759384414067322 0 0 0
211 3 17.954855275720668 7.639517418543826 3.188740832695868 0 0 0
212 1 14.051429337606546 10.414356078778493 1.5659078436092984 0 0 0
213 2 15.8117226538323 9.860929792671046 0.03322654473350159 0 0 0
214 3 15.791779344803794 9.926967961960283 3.1441135073088398 0 0 0
238 1 19.329885730465943 8.828438736256059 1.616054737434621 0 0 0
239 2 21.083391198727796 8.319162569597589 0.057401133965634586 0 0 0
240 3 21.099866170639256 8.34131409014331 3.1688619800034084 0 0 0
242 2 18.939750274897293 10.56295131354097 0.03049573733116165 0 0 0
243 3 18.922171354973873 10.617044411622953 3.141721314832772 0 0 0
387 4 13.577605977507796 0.39423344137848304 8.00475849900159 0 0 0
415 4 16.660609883165733 1.371522082999411 8.006452087822767 0 0 0
416 5 18.500626818931124 0.9163832414366618 6.349632666716499 0 0 0
418 4 14.22191187659723 3.6407296651818517 7.998026088934142 0 0 0
419 5 16.06450060204462 3.1895163079562265 6.3436448543740545 0 0 0
422 5 13.629779658617752 5.4549938008308665 6.330207731160091 0 0 0
445 4 19.740801289121308 2.3437071362360182 8.004109104926615 0 0 0
448 4 17.308257207708316 4.619200207905677 7.994506410556617 0 0 0
449 5 19.14596163501207 4.159414409844761 6.339106179764004 0 0 0
451 4 14.879626514137078 6.8841736896379055 7.98032461978179 0 0 0
452 5 16.722100176929622 6.434284181474293 6.3257633760932075 0 0 0
455 5 14.299690598722641 8.700388702247906 6.313462126357757 0 0 0
478 4 20.389146644490026 5.597910861609932 7.987855856729924 0 0 0
481 4 17.96844258735282 7.871014740369856 7.975728182415068 0 0 0
482 5 19.807040465171465 7.4164138461885445 6.319986935656634 0 0 0
484 4 15.54869159911678 10.132973129287992 7.967512652102037 0 0 0
485 5 17.394447103970442 9.693159117956101 6.310934908572423 0 0 0
511 4 21.049992735569383 8.860356380127795 7.970264171489861 0 0 0
515 5 20.4794067402255 10.689521757747208 6.308652000368939 0 0 0
200 1 22.61528492407263 1.3342545310544915 1.6110825179437385 0 0 0
201 2 24.33303545428584 0.8280921923002348 0.016217969788200406 0 0 0
202 3 24.413597540016198 0.8527905531803361 3.125702685472752 0 0 0
204 2 22.21751587699261 3.0975445383316114 0.05836123952596403 0 0 0
205 3 22.2746688475455 3.1102940464140065 3.168615152220892 0 0 0
229 1 25.75426064616733 2.0466863506650728 1.526116119383542 0 0 0
230 2 27.45829791575207 1.5350544454338948 99.91655746036916 0 0 -1
231 3 27.55772540291971 1.549186902427035 3.0256151795472865 0 0 0
232 1 23.62758056681533 4.310391046181998 1.5839176790477056 0 0 0
233 2 25.346689528996592 3.8162663011505673 99.98437931226553 0 0 -1
234 3 25.4281756449642 3.8137829917750077 3.09442866029948 0 0 0
235 1 21.48449858698448 6.568138576536438 1.6194605560629147 0 0 0
236 2 23.22156154091207 6.074707207611313 0.038208977890475344 0 0 0
237 3 23.27333494476708 6.075309061147618 3.1491725687519603 0 0 0
257 1 28.892615427253734 2.73823883582441 1.427185683243203 0 0 0
260 1 26.772837832403532 5.011780705471422 1.5099061578218957 0 0 0
261 2 28.48793851109767 4.52426010526616 99.90352285901731 0 0 -1
262 3 28.57000580097082 4.487946809554597 3.0131954521094513 0 0 0
263 1 24.631735614404114 7.272588407656968 1.574487284814867 0 0 0
264 2 26.364748922127525 6.792145315249633 99.9841869403862 0 0 -1
265 3 26.422580041342222 6.757913759190549 3.0949249661180644 0 0 0
266 1 22.474093937773247 9.528205293385218 1.598447000966959 0 0 0
267 2 24.226947574246278 9.038279984636477 0.03182035840406972 0 0 0
268 3 24.248798667514965 9.026470464714512 3.1433568093610678 0 0 0
444 4 22.17849059553439 0.06509671478883229 8.00370719669117 0 0 0
446 5 21.577158704563715 1.8830916781358604 6.346072187544182 0 0 0
472 4 25.25772740540079 1.0457481124523837 8.000033917731148 0 0 0
473 5 27.0994390762859 0.5973023438576883 6.342043160914092 0 0 0
475 4 22.817979456651024 3.320241661932959 7.99723490781799 0 0 0
476 5 24.6536724491027 2.8608416144985087 6.339279913532455 0 0 0
479 5 22.223767269558902 5.136159604587906 6.33117152653544 0 0 0
502 4 28.337366093593868 2.0413296920215065 7.996363350698448 0 0 0
505 4 25.893844465979587 4.307749664905886 7.9885163078962655 0 0 0
506 5 27.731829438680528 3.855171712148369 6.332496861748083 0 0 0
508 4 23.465939588017626 6.583068183522838 7.9789586832206565 0 0 0
509 5 25.300069902545324 6.125454489092852 6.321958012264756 0 0 0
512 5 22.88610345470386 8.406529972598383 6.313192825232056 0 0 0
535 4 28.9722540292956 5.307538239253829 7.980593103748165 0 0 0
538 4 26.542670659520354 7.576283242691339 7.9698710730385605 0 0 0
539 4 24.127990118026073 9.853077706167497 7.964530862913806 0 0 0
256 1 30.995233166359473 0.4479205010036439 1.3555255040378806 0 0 0
258 2 30.596880266459852 2.2272165736309026 99.81697504917723 0 0 -1
259 3 30.685423953689117 2.2127197205977143 2.925945736205019 0 0 0
276 1 34.121435424514985 1.1068935899920525 1.2751137516977482 0 0 0
277 2 35.84621188681577 0.5683270204441614 99.69654808187947 0 0 -1
278 3 35.87357735582671 0.5632191895760138 2.805854213246356 0 0 0
279 1 32.02659991549457 3.410881522082172 1.3479807606446053 0 0 0
280 2 33.74380660765422 2.9047150019138965 99.75087211654588 0 0 -1
281 3 33.79649295228493 2.854040734865772 2.8597834063549463 0 0 0
282 1 29.914318897598605 5.698187184715637 1.4459758556272608 0 0 0
503 5 30.18342793887172 1.6014888327006753 6.342003951505065 0 0 0
529 4 33.88292858708759 0.8089490210726508 8.00417016678979 0 0 0
530 5 35.73946572594985 0.39168185076359746 6.351580311802074 0 0 0
532 4 31.420384060351093 3.0516576776054123 7.993905068407462 0 0 0
533 5 33.27055861099787 2.6209679449155296 6.34222182909355 0 0 0
536 5 30.81417650941692 4.864484625744538 6.32701303474782 0 0 0
1 2 -19.777351684295475 15.789411416573794 99.89259390345937 0 0 -1
2 3 -19.853863316656 15.852458590960623 3.001927134025412 0 0 0
3 1 -23.668514914927098 18.648632063476857 1.3024671554569045 0 0 0
4 2 -21.8894965348879 18.087099070747936 99.79539027824345 0 0 -1
5 3 -21.96762209108478 18.138078415295965 2.903962624806012 0 0 0
6 1 -25.759598752334274 20.964385664750907 1.2476602435904516 0 0 0
7 2 -23.992988331459507 20.413323738862903 99.72261626081644 0 0 -1
8 3 -24.05241894249679 20.427725365889945 2.8313845731850815 0 0 0
26 1 -20.542686013470245 19.30591704728131 1.3685584508402655 0 0 0
29 2 -20.850537681079118 21.0836635428747 99.80165866609666 0 0 -1
30 3 -20.94828649974471 21.069338458602925 2.9095743520736033 0 0 0
292 4 -20.72612246765322 16.657936521577618 7.986770935298929 0 0 0
295 4 -23.17868411390084 18.90127701617114 8.001162632212253 0 0 0
296 5 -21.322104476230447 18.49090322065924 6.341395380362521 0 0 0
298 4 -25.644546240522374 21.134723349399575 8.008878421758372 0 0 0
299 5 -23.7870860777656 20.72567585422707 6.351874885902091 0 0 0
325 4 -20.08987453849027 19.923114710520263 8.001821258456296 0 0 0
17 1 -14.135902354312757 12.482033574509805 1.5882686635004601 0 0 0
18 2 -12.364781709185086 11.994760915515217 0.04238936998619479 0 0 0
19 3 -12.381161844551492 11.976017556959917 3.1538350498991505 0 0 0
20 1 -16.29247882652924 14.741889459974669 1.5398864035517614 0 0 0
21 2 -14.505778420471104 14.235567332906754 0.019395120665738896 0 0 0
22 3 -14.561414907513182 14.24604094037617 3.1302625020729953 0 0 0
23 1 -18.429242982311816 17.014959660184235 1.457338840010281 0 0 0
24 2 -16.6336122341144 16.491473308961865 99.95591814744276 0 0 -1
25 3 -16.720910488673955 16.515881094643454 3.065506176796999 0 0 0
27 2 -18.746502034834485 18.773318361490503 99.87362315014812 0 0 -1
28 3 -18.849457758348553 18.78912352996905 2.9820155883527257 0 0 0
49 1 -13.150172934759269 15.441472273085624 1.5946510013272126 0 0 0
50 2 -11.368641495518869 14.95450264159364 0.06386093167683321 0 0 0
51 3 -11.409632305194165 14.937996906084155 3.1746895347223227 0 0 0
52 1 -15.29246874309517 17.704265385619006 1.5391867255496023 0 0 0
53 2 -13.498472957604298 17.205454294081857 0.029046248192282735 0 0 0
54 3 -13.572904356195224 17.20295287052882 3.1388898693368716 0 0 0
55 1 -17.41421643132293 19.98174441901833 1.4688995276072068 0 0 0
56 2 -15.614473352556272 19.474446309021793 99.97134023823192 0 0 -1
57 3 -15.712978180809099 19.466691223057126 3.0799932934866856 0 0 0
80 1 -12.155719163942125 18.414869502042393 1.6142742024743546 0 0 0
83 1 -14.284231771262174 20.681511861818564 1.5700250528428887 0 0 0
84 2 -12.495347668476551 20.188846743429533 0.05531329698659144 0 0 0
85 3 -12.561267739625631 20.17671515771947 3.164662579793581 0 0 0
287 5 -14.035289851108118 11.688039288735789 6.306559667299497 0 0 0
290 5 -16.44546349017482 13.969543190807006 6.313439885499865 0 0 0
293 5 -18.873039244754608 16.239122983089445 6.32626043227318 0 0 0
316 4 -12.795925197093501 13.124801551705751 7.965339134786251 0 0 0
319 4 -15.211584925522992 15.401750035117447 7.976418951926531 0 0 0
320 5 -13.367225350716799 14.96666606037252 6.31636275015474 0 0 0
322 4 -17.64191578473242 17.66947882626299 7.989910751590876 0 0 0
323 5 -15.792287509541403 17.24261849749749 6.33001712791506 0 0 0
326 5 -18.23663952928685 19.504250062983964 6.342500472762379 0 0 0
349 4 -12.131046431951507 16.391191558074137 7.981341638091111 0 0 0
352 4 -14.56022461293856 18.66679028877974 7.994526193464789 0 0 0
353 5 -12.713980786739553 18.230504109782547 6.335489714157203 0 0 0
355 4 -17.00346107800831 20.931135513250098 8.002466107076408 0 0 0
356 5 -15.153898979576804 20.500165610733145 6.344851648929222 0 0 0
382 4 -11.478981521336774 19.648907945980252 8.00037556856056 0 0 0
385 5 -12.073527683911752 21.47776209515043 6.3483944958597895 0 0 0
43 1 -8.829860009656166 10.92742897124405 1.5868303978276317 0 0 0
46 1 -10.991998307833484 13.185629614868201 1.6142802343965417 0 0 0
47 2 -9.227231495933605 12.71070994038717 0.05999722650012249 0 0 0
48 3 -9.233165521732442 12.665420035844077 3.1710912294868097 0 0 0
71 1 -5.701529946953544 11.628887296195266 1.590600150729266 0 0 0
72 2 -3.9631642405790273 11.151715748195318 0.010959592918117093 0 0 0
73 3 -3.9346720390140675 11.07200116496878 3.121348062428514 0 0 0
74 1 -7.8572160064069205 13.897617909309545 1.6353100690440263 0 0 0
75 2 -6.1067389546462865 13.417895095929799 0.06910282232338454 0 0 0
76 3 -6.091896825057691 13.370990888013303 3.180087681171559 0 0 0
77 1 -10.01193209569929 16.156616092050303 1.640751603324105 0 0 0
78 2 -8.24634040013091 15.672649638494853 0.09284275808390298 0 0 0
79 3 -8.256693484833258 15.65218480280834 3.203663376155389 0 0 0
81 2 -10.376311273873457 17.92653345461068 0.084850613716202 0 0 0
82 3 -10.415887413393138 17.91811246134569 3.195009070244227 0 0 0
104 1 -4.734925261427275 14.613235266733335 1.632520113927437 0 0 0
107 1 -6.8810826192375325 16.88172347340366 1.6549555811517223 0 0 0
108 2 -5.1389556600234645 16.384060993021656 0.0861100578298961 0 0 0
109 3 -5.108854423710394 16.382432016682394 3.1967314834829166 0 0 0
110 1 -9.021100728400533 19.14179667726539 1.6544948453593067 0 0 0
111 2 -7.2657062692747685 18.648777957541053 0.09942328432238379 0 0 0
112 3 -7.256859122051958 18.65387102480372 3.209634923820591 0 0 0
113 1 -11.152433622880372 21.402498041917177 1.638544373485578 0 0 0
114 2 -9.385111698390897 20.912038390314905 0.09735039329790154 0 0 0
115 3 -9.40077429981463 20.911857516654447 3.2072467347533924 0 0 0
137 1 -3.7577287769434036 17.60598274692549 1.6213479088256357 0 0 0
140 1 -5.888877625820281 19.8735840487836 1.641684285213873 0 0 0
141 2 -4.160774053357991 19.365174995602267 0.06047154769780943 0 0 0
142 3 -4.102593792980278 19.392502760420122 3.170166353470517 0 0 0
313 4 -10.385667839649997 10.846451223072924 7.959625061129475 0 0 0
317 5 -10.956610326530937 12.683809605054034 6.305264883235131 0 0 0
343 4 -7.2986678010334085 11.837320286722964 7.9568276080683145 0 0 0
344 5 -5.457701364770923 11.400916403283166 6.2978204390689765 0 0 0
346 4 -9.713186611528027 14.111857045445813 7.966790903845049 0 0 0
347 5 -7.873048791000225 13.672840442991795 6.30566731807036 0 0 0
350 5 -10.288554778923324 15.952212434700817 6.32067211793324 0 0 0
373 4 -4.202313650773012 12.825757908945603 7.957149126898972 0 0 0
376 4 -6.624604797233898 15.09233789863392 7.969772184936308 0 0 0
377 5 -4.781825730805269 14.656122674317652 6.3082564378509325 0 0 0
379 4 -9.048226868248081 17.36945275648039 7.987020779046365 0 0 0
380 5 -7.20669666239104 16.927369320451177 6.325402819729565 0 0 0
383 5 -9.636310685161739 19.203580805840993 6.341196425660077 0 0 0
406 4 -3.5304264934791316 16.07182789049889 7.9739730514607965 0 0 0
409 4 -5.962912503815011 18.34247906091451 7.991340234794942 0 0 0
410 5 -4.120629224333143 17.899668220598635 6.329397154737312 0 0 0
412 4 -8.397908901661168 20.621190826593548 8.00425141480345 0 0 0
413 5 -6.5581766417848115 20.16957150242991 6.344053849538351 0 0 0
442 5 -3.478488361861114 21.13996337819932 6.343434427734705 0 0 0
101 1 -2.58918080072842 12.32917962994154 1.5842213825529174 0 0 0
102 2 -0.8617334554391272 11.825539741579508 0.0018729632155689798 0 0 0
103 3 -0.8247400211973304 11.774651226810066 3.1128120650617443 0 0 0
105 2 -3.003583412645584 14.11165469608128 0.05322479507770111 0 0 0
106 3 -2.9620502393443635 14.089562370420904 3.1641899316993753 0 0 0
131 1 0.5096745204331454 13.023465865578213 1.5562546257547534 0 0 0
132 2 2.2288400566813684 12.483910141269233 99.97603054174353 0 0 -1
133 3 2.270702485189204 12.483085341247875 3.087288359167324 0 0 0
134 1 -1.6241247311868356 15.323928569293775 1.5923344693804284 0 0 0
135 2 0.08952400978040767 14.789488654281811 0.00388583004393047 0 0 0
136 3 0.15347512181708078 14.80959655089339 3.1143685671997616 0 0 0
138 2 -2.040138663991361 17.083238664895703 0.03322242830476201 0 0 0
139 3 -1.971507616086963 17.113301520634785 3.1430601142514343 0 0 0
158 1 3.6014249183566096 13.706252707163959 1.5059878637527182 0 0 0
161 1 1.479582398184944 16.019986558117182 1.51534841513682 0 0 0
162 2 3.184503004641989 15.452061676780595 99.92719564397883 0 0 -1
163 3 3.2545778736592976 15.516129692788537 3.036667135843004 0 0 0
164 1 -0.6396821967548623 18.316676585616943 1.5393171891465878 0 0 0
165 2 1.060932093490955 17.766555640338346 99.94035241156611 0 0 -1
166 3 1.15129342193923 17.826281067116266 3.0490448468426896 0 0 0
167 1 -2.758475670492111 20.596014895348134 1.5737316147533855 0 0 0
168 2 -1.0527523594688932 20.069262018812207 99.97261834002478 0 0 -1
169 3 -0.959501488593905 20.11311936481399 3.0814198968900075 0 0 0
191 1 4.582385059628813 16.695588739894717 1.41968704207251 0 0 0
194 1 2.4764623215430204 19.004699924987936 1.4277047491184793 0 0 0
195 2 4.175100469085251 18.434790398582866 99.83163224899234 0 0 -1
196 3 4.258884094655823 18.508971327749144 2.939743081596629 0 0 0
197 1 0.3708061440219126 21.29785826739261 1.4674181621193125 0 0 0
198 2 2.067182757522759 20.757678029983268 99.85899478626973 0 0 -1
199 3 2.1678161419146273 20.801310664465582 2.9673092265691654 0 0 0
374 5 -2.3559098234085107 12.396682254955623 6.298659030202955 0 0 0
400 4 1.3392505098250083 11.57656258073175 7.958209109533952 0 0 0
401 5 3.1951293231549345 11.16226254515375 6.303210277685727 0 0 0
403 4 -1.097649731431257 13.815823997751414 7.961063881509825 0 0 0
404 5 0.7550392763399689 13.394506341075843 6.303623296403184 0 0 0
407 5 -1.6831480361623508 15.640073890758176 6.313346150324498 0 0 0
430 4 4.4565329987864954 12.582901419637121 7.96346305029371 0 0 0
433 4 2.011464525723558 14.813486822775708 7.968616554548635 0 0 0
434 5 3.8697952192400638 14.399706291183763 6.312200133102307 0 0 0
436 4 -0.4329809106726515 17.058454524403825 7.979918225638443 0 0 0
437 5 1.419901047359882 16.633353224586816 6.321543280794637 0 0 0
439 4 -2.8762739468561773 19.319489403469703 7.993789659047936 0 0 0
440 5 -1.0308298218948255 18.879830482458473 6.333484464259481 0 0 0
466 4 2.6647985902988083 18.059109205845147 7.988319482533851 0 0 0
467 5 4.52253033203837 17.641961245611462 6.332448440127003 0 0 0
469 4 0.21056499831541117 20.309178339881115 7.996280817901311 0 0 0
470 5 2.0607661048889665 19.876685575148617 6.339444345139375 0 0 0
499 4 3.297751094716452 21.31578729941011 8.000226623802115 0 0 0
155 1 5.725775572560495 11.380781502653841 1.512100392189439 0 0 0
156 2 7.46304618334635 10.814454085570059 99.96144453457345 0 0 -1
157 3 7.4607788416207885 10.846997968115268 3.072861303195243 0 0 0
159 2 5.319757918769621 13.132167829082084 99.9353977810527 0 0 -1
160 3 5.355852426150302 13.186128686085992 3.0460899967773116 0 0 0
185 1 8.815086376929983 12.050703893288869 1.496906830671944 0 0 0
186 2 10.559773852291107 11.467379237054962 99.95919970312124 0 0 -1
187 3 10.547087193969237 11.544996014090673 3.0697636719811703 0 0 0
188 1 6.694230993242162 14.375013924697889 1.4456803138630048 0 0 0
189 2 8.421450835871703 13.778902166670544 99.89157319488166 0 0 -1
190 3 8.438054508074046 13.874166483980051 3.0011725053526765 0 0 0
192 2 6.292491425307396 16.104644722270002 99.84378414772773 0 0 -1
193 3 6.3451988374257695 16.198657078470937 2.9523838757102636 0 0 0
215 1 11.91553098575319 12.717531739031104 1.4818405082719168 0 0 0
218 1 9.795108729827021 15.032816256321915 1.3956547161012207 0 0 0
219 2 11.539428335575844 14.433553270936173 99.8610771203362 0 0 -1
220 3 11.525421193561009 14.543994582564142 2.9699834300292762 0 0 0
221 1 7.689745667255196 17.35290233004222 1.3352624264184643 0 0 0
222 2 9.418109191426556 16.75624866467869 99.78105864983556 0 0 -1
223 3 9.432517899113586 16.856802876239506 2.88947416507115 0 0 0
224 1 5.593764349735556 19.669633980047724 1.320580995489286 0 0 0
225 2 7.306923481511358 19.093804995912294 99.7415811140612 0 0 -1
226 3 7.355224863702633 19.16188725055647 2.85012687475691 0 0 0
227 2 5.202930074411887 21.43173830753864 99.75548837755633 0 0 -1
228 3 5.278766357563651 21.456467786818884 2.864227569256755 0 0 0
247 1 12.907614017965804 15.686725110081571 1.3756238065775144 0 0 0
250 1 10.80412228562545 18.000679929937373 1.2908298214490985 0 0 0
251 2 12.557987628928887 17.41541717045703 99.76179538363083 0 0 -1
252 3 12.52398156623077 17.49905004814935 2.8704067997251776 0 0 0
253 1 8.713238131605388 20.319422287264157 1.2533185214504667 0 0 0
254 2 10.451935761190269 19.75139870778809 99.70052184128893 0 0 -1
255 3 10.446988893546736 19.796746371373597 2.809646137324315 0 0 0
431 5 6.316120719401875 12.173572458978253 6.30761896659731 0 0 0
457 4 10.01555598820732 11.369493396915214 7.966170507248821 0 0 0
458 5 11.871520694337022 10.952011047782545 6.308871495677508 0 0 0
460 4 7.571625996649124 13.596112440397832 7.9704540958707994 0 0 0
461 5 9.43245648845513 13.1884184766157 6.313235007733618 0 0 0
463 4 5.119993059099394 15.823108421963028 7.978862001856678 0 0 0
464 5 6.981655640405793 15.415335955252965 6.322686580600102 0 0 0
487 4 13.12099420862508 12.380522693430532 7.968312744699194 0 0 0
490 4 10.679311881972527 14.615535714783254 7.977495876696343 0 0 0
491 5 12.538909138276196 14.206436115431126 6.318703304233346 0 0 0
493 4 8.224007603211007 16.844491656613307 7.989414622558636 0 0 0
494 5 10.085906772312628 16.439583448664397 6.33233154053723 0 0 0
496 4 5.761012890052742 19.075583701676592 7.998015774378622 0 0 0
497 5 7.6210206550253385 18.665041858402994 6.343229308554199 0 0 0
500 5 5.152178850224996 20.892029958120833 6.3465778586831085 0 0 0
523 4 11.322153497582462 17.872738968523123 7.997385295038109 0 0 0
524 5 13.181894628639236 17.4669117624605 6.338705302908274 0 0 0
526 4 8.855570820805848 20.103269747265998 8.005816422925852 0 0 0
527 5 10.715075699355818 19.695427129232908 6.350238393612473 0 0 0
216 2 13.671539115639549 12.134977525421148 99.95477045239437 0 0 -1
217 3 13.64512782467055 12.230814284075672 3.0647433251313543 0 0 0
241 1 17.174606746448006 11.099037017007454 1.5667437390719345 0 0 0
244 1 15.031103836878511 13.384876230200451 1.4787605576126595 0 0 0
245 2 16.800631392090224 12.820303800586487 99.95875312887809 0 0 -1
246 3 16.758628795192077 12.90413801048987 3.068938253214202 0 0 0
248 2 14.672996689792717 15.102939666672206 99.8589962558876 0 0 -1