
 6 atoms
 6 atom types

 0.000000 3.16021 xlo xhi
 0.000000 2.7368221412936213 ylo yhi
 0.000000 100.00000 zlo zhi
 -1.5801049999999994 0.000000  0.000000 xy xz yz

 Masses 

1    95.950000
2    32.060000
3    32.060000
4    95.950000
5    32.060000
6    32.060000

 Atoms

   1 1     0.000000     0.000000     1.585926
   2 2     0.000000     1.824913     0.000000
   3 3     0.000000     1.824913     3.171852
   4 4     0.000000     0.000000     7.757778
   5 5     0.000000     1.824913     6.171852
   6 6     0.000000     1.824913     9.343704
