(written by ASE)

6 atoms
2 atom types

0.0      3.1602100000000002  xlo xhi
0.0      2.7368221412936213  ylo yhi
0.0                      30  zlo zhi
    -1.5801049999999994                       0                       0  xy xz yz

Atoms # atomic

     1   1                       0                       0                       2
     2   2      1.5801050000000001     -0.9119091399999999                0.414074
     3   2      1.5801050000000001     -0.9119091399999999      3.5859260000000002
     4   1                       0                       0      8.1718519999999994
     5   2      1.5801050000000001     -0.9119091399999999      6.5859259999999997
     6   2      1.5801050000000001     -0.9119091399999999      9.7577780000000001
