LAMMPS data file via write_data, version 27 Jun 2024, timestep = 170000, units = metal

540 atoms
6 atom types

0 37.59365801343109 xlo xhi
0 21.52779524830364 ylo yhi
-0.34187675055659184 9.662497609430373 zlo zhi
-27.49615054720427 0 0 xy xz yz

Masses

1 95.95
2 32.06
3 32.06
4 95.95
5 78.971
6 78.971

Atoms # atomic

283 5 -5.114376250499765 9.984926928771685 6.301811567144431 1 -1 0
284 6 -5.114895141928644 9.995446826690937 9.617644908894178 1 -1 0
230 2 -7.7603270018796655 7.055238620395451 0.07198900412102373 -1 1 0
231 3 -7.762381572111611 7.08322468130719 3.188039863085028 -1 1 0
538 4 -6.953721955442589 10.437831349498898 7.957699110710167 2 -1 0
535 4 -4.538575459009402 8.162630127909786 7.96201599709314 2 -1 0
229 1 -9.516174188040617 7.572240975929602 1.6201538066874213 -1 1 0
197 1 30.216034266600907 5.302325186954143 1.644736369532712 -2 2 0
257 1 -6.388715911587693 8.277302822573581 1.6189486204948718 -1 1 0
199 3 -5.606945468707812 4.813632867653685 3.1936791542327585 -1 2 0
198 2 -5.624237269761562 4.803682048935265 0.09049964962002234 -1 2 0
510 6 -8.20101207877355 9.014275099726698 9.621530634598876 2 -1 0
509 5 -8.198492746845075 8.9963018456829 6.305841342885667 2 -1 0
259 3 -4.615812725413838 7.797080048629959 3.1711063452158355 -1 1 0
507 6 -5.77852135628801 6.740683339854654 9.629769429631338 2 -1 0
506 5 -5.7804531591348525 6.718622507449179 6.315433911502327 2 -1 0
503 5 -3.359967275236999 4.44249948457409 6.327589875522698 2 -1 0
504 6 -3.3545040655576415 4.460629682559151 9.640202839174155 2 -1 0
233 2 -9.901532039502229 9.315969690888265 0.0446718057088379 -1 1 0
234 3 -9.92315935674554 9.36861030546011 3.1521762775999536 -1 1 0
256 1 -4.237847103035557 6.020705289111977 1.6216252485495544 -1 1 0
258 2 -4.640485457434058 7.775883079418139 0.055871493077717375 -1 1 0
508 4 -10.044768091683705 9.44275081545016 7.959676617743835 2 -1 0
505 4 -7.622317902234082 7.177727828305312 7.970050509011312 2 -1 0
232 1 -11.663459377599041 9.862660342052171 1.573562681100478 -1 1 0
502 4 -5.194458749092672 4.907156775075603 7.983078478285794 2 -1 0
261 2 -6.781683517835811 10.018259640509445 0.03894031230646358 -1 1 0
262 3 -6.792340964147281 10.072443359062627 3.1478834166381335 -1 1 0
537 6 -2.6950635593278878 7.73434617897877 9.621175987892412 2 -1 0
536 5 -2.697988006643158 7.701849953229602 6.304713639396948 2 -1 0
312 6 -2.033900241805289 10.98453311097161 9.609770247949019 1 -1 0
532 4 -2.11938235496994 5.886012668713672 7.975030771167598 2 -1 0
311 5 -2.0315380073769167 10.979146987092651 6.293192997733617 1 -1 0
307 4 -1.453052194955774 9.151391557739373 7.953364653025201 1 -1 0
534 6 -0.2738237192821746 5.440926760728174 9.630174785765824 2 -1 0
533 5 -0.28656932514230327 5.426906085064527 6.317322612079947 2 -1 0
309 6 0.3858312134247628 8.713971198387878 9.613911496431282 1 -1 0
308 5 0.38400208129139685 8.698011831703319 6.292449123875437 1 -1 0
304 4 0.9570473281440006 6.871713812078596 7.964498745938495 1 -1 0
337 4 1.6214640648885381 10.14542099886665 7.946203828698263 1 -1 0
339 6 3.4629724464299607 9.709666419886846 9.598996282548637 1 -1 0
338 5 3.4545005749172355 9.696935363592226 6.286951730625152 1 -1 0
334 4 4.03738028580241 7.872174106531571 7.949471169699084 1 -1 0
196 3 34.129860904014215 2.555292058983464 3.1697170555755307 -2 2 0
195 2 34.09368690881445 2.5414335660415204 0.06062862696827479 -2 2 0
305 5 2.7924402537565394 6.415992233061827 6.308028810402357 1 -1 0
306 6 2.8078085216998163 6.4450806586902845 9.62273651445297 1 -1 0
302 5 5.231207238122789 4.159285364360001 6.318275468412888 1 -1 0
303 6 5.245260422080635 4.181893792517158 9.629154804062011 1 -1 0
228 3 -2.4510922587554282 5.53196461229459 3.148942528961951 -1 2 0
227 2 -2.5027415608233206 5.534103387114671 0.03793402650656195 -1 2 0
301 4 3.389388190420824 4.605686333537354 7.973926110179233 1 -1 0
224 1 -2.1031820969898227 3.763492710349266 1.5882557294134174 -1 2 0
276 1 -1.0947258677079876 6.736510009116608 1.5702049177819186 -1 1 0
221 1 0.02049862259034587 1.5026745703775122 1.5405699728141995 -1 2 0
226 3 -0.30725646464728973 3.2735486215937026 3.099866737852504 -1 2 0
225 2 -0.3878612293986388 3.2631438382279385 -0.0120895101027449 -1 2 0
531 6 2.164422139768408 3.171906780087708 9.637866888489793 2 -1 0
530 5 2.1496133032336875 3.1572287610213867 6.323148223934733 2 -1 0
277 2 0.6342582971249796 6.247257881977701 -0.026347501770153835 -1 1 0
278 3 0.7034843908244407 6.227806608429594 3.0844605677270254 -1 1 0
253 1 1.0371800037560952 4.4700852473553585 1.5078900054788726 -1 2 0
222 2 1.7245336127187052 0.9867613330686761 -0.06594295414764943 -1 2 0
223 3 1.8179888373799367 1.009472907177009 3.043560675192714 -1 2 0
529 4 0.31195077562552204 3.6065568969651776 7.981856957121679 2 -1 0
31 1 2.0496446912892172 7.430472067135809 1.5128654614033086 -2 1 0
280 2 -1.4942516012631082 8.498628805388204 0.02453543935338613 -1 1 0
281 3 -1.4671317128865153 8.496136896780591 3.138461088490079 -1 1 0
255 3 2.838535766955129 3.9610899427435373 3.011999144567803 -1 2 0
254 2 2.7445364006067283 3.9738953039674043 -0.09987282229128303 -1 2 0
526 4 2.7629701183031283 1.3457037744826952 7.979926941948777 2 0 0
279 1 -3.242536784230659 8.989670536053453 1.5956060986934628 -1 1 0
250 1 3.1547528018232307 2.2000008416131376 1.4375528010507193 -1 2 0
527 5 4.605654372909271 0.9012123928532759 6.323989889932155 2 0 0
528 6 4.612307048865295 0.9108518159988156 9.637351950441985 2 0 0
36 3 1.6853293587365428 9.1712744090066 3.0976199309267725 -2 1 0
35 2 1.6429283719968348 9.213806334676427 -0.011427852568792182 -2 1 0
32 2 3.77367320900568 6.956361820952307 -0.08563252823963463 -2 1 0
33 3 3.83968564833946 6.8953927342142745 3.024792285514168 -2 1 0
501 6 -0.9172941666587965 2.1767049494347566 9.642176194716411 2 0 0
500 5 -0.9336620241365231 2.1708301520429862 6.329931037898716 2 0 0
34 1 -0.09657656296675689 9.69216583099762 1.5730584046213056 -2 1 0
6 1 4.177708170124249 5.160535730447726 1.4259582388594079 -2 2 0
62 1 3.048511209850448 10.387218754420578 1.5518058206773107 -2 1 0
335 5 5.877244528186973 7.429906229931205 6.295984687594635 1 -1 0
336 6 5.884619309032283 7.444671612324793 9.609966626360526 1 -1 0
298 4 5.847266833236935 2.346853809794752 7.980739471476749 1 0 0
331 4 6.474825287634752 5.613587129549735 7.9634525886908785 1 -1 0
369 6 6.550856984790869 10.70103008368772 9.598444656671699 1 -1 0
368 5 6.541036710405904 10.69440147347953 6.28467358390171 1 -1 0
364 4 7.1271821195015885 8.872931909678965 7.947316676709554 1 -1 0
333 6 8.324988912988735 5.201545096187916 9.623791269274335 1 -1 0
332 5 8.320117140016226 5.180938640934295 6.31320949930207 1 -1 0
366 6 8.974497894525165 8.456380204020636 9.607282237032578 1 -1 0
365 5 8.977002607385348 8.439295070160588 6.291407254774464 1 -1 0
328 4 8.935919239934014 3.3709151021825705 7.976586475367651 1 -1 0
361 4 9.570755530518934 6.6307185023443935 7.9606673565375985 1 -1 0
394 4 10.222258284339352 9.882914877657003 7.947444175842496 1 -1 0
362 5 11.420301365341166 6.208195466290656 6.309130001551526 1 -1 0
363 6 11.427098228462816 6.2205060508835945 9.624084687025308 1 -1 0
396 6 12.074506246487221 9.473323528688574 9.610674877095288 1 -1 0
395 5 12.0712413328381 9.46557935317794 6.29610401399383 1 -1 0
391 4 12.671593417017377 7.647878105658099 7.961295943263527 1 -1 0
424 4 13.337707513983139 10.893541918152662 7.9501012384902285 1 -1 0
358 4 12.0283737780109 4.3965626524097745 7.974981073016137 1 -1 0
247 1 -22.23697968743283 21.43675147440251 1.3776187695863265 -1 1 0
252 3 4.9566192566336005 1.68394893830732 2.934095118936841 -1 2 0
251 2 4.852750653687544 1.6772615018631916 -0.17765116297366965 -1 2 0
7 2 5.895445687024802 4.673965774773296 -0.1843860653812274 -2 2 0
8 3 5.9693747159982085 4.619215977182582 2.9253192878438954 -2 2 0
3 1 6.287928209814709 2.875026934131862 1.3375356415698638 -2 2 0
329 5 10.788324414294886 2.9471873398213293 6.326992324915748 1 -1 0
330 6 10.793973160603729 2.962447291317369 9.634188367064375 1 -1 0
58 1 7.311506126783817 5.838659765192432 1.373718959748837 -2 1 0
4 2 7.9934595125996495 2.3493607056305192 -0.2640706194892203 -2 2 0
5 3 8.065392334868948 2.3328418065340797 2.845603121520426 -2 2 0
275 1 8.375844659390472 0.5706246856347783 1.2749534246584957 -1 2 0
61 3 6.970320532774217 7.560079349580446 2.9876683357807945 -2 1 0
26 1 9.413940049460596 3.532605920942999 1.276817116671413 -2 2 0
30 3 9.079097147900661 5.260682067121468 2.8854749308167285 -2 2 0
29 2 9.032582117364734 5.350269780023814 -0.22136981601268213 -2 2 0
300 6 7.701508264789747 1.9311430131548122 9.636631414315282 1 0 0
299 5 7.6974107630926785 1.9195649015804777 6.325841903217689 1 0 0
60 2 6.921249763597832 7.655252565444062 -0.12024930802553749 -2 1 0
59 1 5.193640392577805 8.119860590306422 1.473874174360451 -2 1 0
1 2 10.086384160617033 0.0133205389112479 -0.3095366418690674 -2 2 0
2 3 10.140095104442517 0.03890551197935589 2.797070626114131 -2 2 0
86 1 10.436588646124632 6.499215567003804 1.356534247003597 -2 1 0
91 3 10.077392568063239 8.213915385090495 2.9766634558152596 -2 1 0
90 2 10.057613696591286 8.330262162326603 -0.1266496048980537 -2 1 0
325 4 11.404963639710369 1.1359314822029045 7.9823663025580665 1 0 0
89 1 8.318493607429456 8.802952110602414 1.4566068810485078 -2 1 0
23 1 11.502093111180407 1.2149792377899242 1.2222724805939813 -2 2 0
28 3 11.170803593597306 2.971448705116827 2.8004758769284996 -2 2 0
27 2 11.139572086478255 3.023312605937529 -0.30418107831003954 -2 2 0
119 1 11.435610508997316 9.476418761749228 1.4670769128574175 -2 1 0
88 3 12.18240054612764 5.90365152339797 2.884750692007574 -2 1 0
87 2 12.173419794420152 6.011548131715084 -0.22463759388076082 -2 1 0
327 6 13.259743075352198 0.7263256618799052 9.645768975093898 1 0 0
326 5 13.263758390475713 0.7259108934477171 6.3321070889512 1 0 0
64 3 4.821432240579707 9.844791761057033 3.0830005721522977 -2 1 0
63 2 4.79300484998159 9.921892814517959 -0.027333592320245233 -2 1 0
55 1 12.534770090670376 4.187249300125226 1.2686210215644624 -2 2 0
359 5 13.88659706487078 3.9847669760097384 6.324183435577095 1 -1 0
360 6 13.881275222148641 3.9886974923296816 9.636902778878483 1 -1 0
393 6 14.530712882489151 7.240788644593739 9.625030460846112 1 -1 0
392 5 14.521861677917713 7.229986528901842 6.309150454206041 1 -1 0
355 4 14.497715327126299 2.1683155372136476 7.987316025352328 1 0 0
426 6 15.190326531965244 10.480678006742789 9.604174270247263 1 -1 0
425 5 15.189873373510888 10.469128283556863 6.291377675499516 1 -1 0
388 4 15.133709627537806 5.418425703969261 7.978902005131851 1 -1 0
421 4 15.779508230454415 8.65939787102995 7.955791854318112 1 -1 0
390 6 16.993095037744062 5.011937201634511 9.636527861908746 1 -1 0
389 5 16.986778486587284 5.0096008422098555 6.321004341212699 1 -1 0
423 6 17.639799590271203 8.258175263081984 9.613211310026298 1 -1 0
422 5 17.63089193365457 8.25395567662194 6.303366612873689 1 -1 0
387 4 17.59692508493953 3.191056270200929 7.986263865966915 1 -1 0
418 4 18.240822437104846 6.439855495090065 7.968243848946969 1 -1 0
451 4 18.893750186662228 9.67235165881097 7.949082422632379 1 -1 0
420 6 20.09452785866618 6.031424009397168 9.626661760512981 1 -1 0
419 5 20.093200265912117 6.020381564168408 6.310865979795136 1 -1 0
453 6 20.744761146242855 9.262516612475737 9.609172763348747 1 -1 0
452 5 20.74766817080594 9.261211678586719 6.294605069348123 1 -1 0
448 4 21.344434657536954 7.450278011493903 7.963471078111599 1 -1 0
415 4 20.699112876780777 4.209523249555741 7.977359652735828 1 -1 0
24 2 13.247269778777138 0.6768091069532599 -0.3318767505565918 -2 2 0
25 3 13.235056377889883 0.6734987486667395 2.7753264170486265 -2 2 0
56 2 14.284225667349352 3.6761942408689086 -0.2836184271156358 -2 2 0
57 3 14.261054769254429 3.610001130089006 2.8258871038949156 -2 2 0
52 1 14.623945587591754 1.8693584205842482 1.241428960842037 -2 2 0
83 1 15.64876060141812 4.844584551853638 1.3201150645184325 -2 2 0
385 5 19.450872754577574 2.777346227974084 6.331019901373841 1 0 0
386 6 19.4595527821053 2.7740338776651203 9.639653684540395 1 0 0
118 3 15.269425834365602 6.561683070132419 2.9255802080614783 -2 1 0
117 2 15.303245820661537 6.666607231764202 -0.18511181527130585 -2 1 0
116 1 13.549026832778774 7.161054239423132 1.374842410509976 -2 1 0
53 2 16.398773658774765 1.3405455643132695 -0.2882865832229165 -2 2 0
54 3 16.324712727963355 1.3105717625110758 2.8189322619757475 -2 2 0
49 1 -10.783598951183071 21.076400431993065 1.2680285059797316 -2 1 0
85 3 17.34757684671171 4.25415372577712 2.8928443651047067 -2 2 0
84 2 17.418411941766617 4.328669515402155 -0.2104639030000958 -2 2 0
143 1 16.64241499200897 7.830870098868407 1.4291535738763297 -2 1 0
80 1 17.739859824566434 2.5222657101510193 1.311631359343151 -2 2 0
357 6 16.352140880651255 1.7544801118128448 9.647864706465981 1 0 0
356 5 16.3555468314182 1.7565985044777495 6.334119162209526 1 0 0
144 2 18.402840887930235 7.318229054908211 -0.10958161045732384 -2 1 0
145 3 18.351438581176712 7.243342365064642 2.996729761598331 -2 1 0
113 1 18.7516597064651 5.502280657582889 1.407269376291874 -2 2 0
120 2 13.166546202549315 8.986651593494225 -0.11245722026958498 -2 1 0
121 3 13.178331081375983 8.886528769799725 2.9958666445822026 -2 1 0
82 3 19.42637691349379 1.9589505377117153 2.9107737021446667 -2 2 0
81 2 19.527500180122544 1.9979676032831974 -0.19337294215294606 -2 2 0
77 1 19.83493477659236 0.20711132755209236 1.3579292350292178 -2 2 0
173 1 19.736766345099074 8.502192866509969 1.4919363239100016 -2 1 0
382 4 20.062004802667534 0.9531131064844315 7.986963640753778 1 0 0
148 3 16.269348400322894 9.577786825410238 3.0231146827447803 -2 1 0
147 2 16.266617798276545 9.636266944201179 -0.09009211859357256 -2 1 0
115 3 20.447971582465968 4.925302162522896 2.997764409831807 -2 2 0
114 2 20.533887462650085 4.992443143679229 -0.10902342124600191 -2 2 0
146 1 14.532041233019864 10.152710237189225 1.4753577491364043 -2 1 0
177 2 19.36358203309887 10.282513732806528 -0.06161292938345181 -2 1 0
178 3 19.343811175120013 10.274519690044727 3.0560228983473037 -2 1 0
204 2 24.591426142578165 8.633715067061463 0.017263419576642666 -2 1 0
205 3 24.551253888565064 8.648011543231787 3.123379697103054 -2 1 0
203 1 22.82743042400088 9.178323150004227 1.5474316198390983 -2 1 0
201 2 26.733423355280458 6.344565637782157 0.05894832895629892 -2 1 0
202 3 26.693266641465883 6.356656301851861 3.1643700182657146 -2 1 0
481 4 22.008882587984786 10.677944794121409 7.94765933342233 1 -1 0
200 1 24.961834347680405 6.866707663570128 1.581159056116366 -2 1 0
417 6 22.540443216647876 3.7859228179778763 9.640162065079 1 -1 0
416 5 22.54896539193285 3.7841087066214243 6.320412503409609 1 -1 0
167 1 27.08594571923999 4.578698015163502 1.6134869635555573 -2 2 0
412 4 23.146305010576977 1.964354219542637 7.989036507499579 1 0 0
175 3 21.446712852148572 7.9422377466351115 3.0784900879205246 -2 1 0
174 2 21.49666200670331 7.968654251035304 -0.03540149582123376 -2 1 0
449 5 23.193874624377354 7.023450689783736 6.304465284055069 1 -1 0
450 6 23.19523862898075 7.032577009518916 9.621996223701766 1 -1 0
142 3 25.68242587732083 3.3384815118189675 3.131251821165147 -2 2 0
171 2 23.632206209159836 5.658167945168399 -0.00948399184589912 -2 1 0
172 3 23.56235182212303 5.630204623017146 3.1016841870263034 -2 1 0
482 5 23.864183764948052 10.260203702115115 6.291134385346105 1 -1 0
483 6 23.860549764588093 10.264384542814966 9.604956906067986 1 -1 0
445 4 23.789200468878324 5.208684611834968 7.9748180307632985 1 -1 0
170 1 21.85142073359547 6.175920796806622 1.505842746533741 -2 1 0
140 1 23.96877244112515 3.8703176016122263 1.5354212619029919 -2 2 0
478 4 24.44959288393954 8.445166592097776 7.956021497568543 1 -1 0
112 3 22.5479493816023 2.6331408364844333 3.0316925258559313 -2 2 0
111 2 22.646413800205597 2.6768561305759264 -0.08137241247920136 -2 2 0
447 6 25.63451340760811 4.779789889499817 9.636119530228175 1 -1 0
446 5 25.632379995449757 4.77033661037014 6.322912612875095 1 -1 0
110 1 20.85239910828801 3.18342915873669 1.4231991219673652 -2 2 0
479 5 26.300985380863754 8.010649669062788 6.301121825050843 1 -1 0
480 6 26.292837567356806 8.021348253036495 9.621048126686546 1 -1 0
78 2 -5.857771824173386 21.212286128304385 -0.1331295357425343 -2 1 0
79 3 -5.971940529124605 21.20596708933383 2.9707483771808265 -2 1 0
475 4 26.88161926395463 6.195834845311484 7.971017267042651 1 -1 0
477 6 28.72446718960509 5.755296221982538 9.629651887389969 1 -1 0
476 5 28.724370924719516 5.747278018261994 6.315732409837163 1 -1 0
472 4 29.318951998831423 3.931679166057079 7.984782895048424 1 -1 0
107 1 22.959416653848784 0.884877173843134 1.4722245210411984 -2 2 0
444 4 26.234100528854764 2.952916723389416 7.989133628002063 1 -1 0
443 6 28.081285967910507 2.507896481515353 9.652497609430373 1 0 0
109 3 24.663763522196934 0.359391219941234 3.075345338871267 -2 2 0
108 2 24.751165127864308 0.3774120486676795 -0.030158588069385043 -2 2 0
442 5 28.077012016832747 2.508396318535466 6.336131778162204 1 0 0
141 2 25.754148270121334 3.3751032380377124 0.020535805919257938 -2 2 0
137 1 26.08741482911667 1.5828623557788977 1.5666561655578521 -2 2 0
413 5 24.99699823329865 1.5294954106158707 6.333064316836204 1 0 0
414 6 24.992670086835904 1.5218798819485213 9.64670240184434 1 0 0
138 2 27.874276288781104 1.0913863077098238 0.0472039178544048 -2 2 0
139 3 27.808933083646185 1.0791303444366638 3.1596764855811608 -2 2 0
439 4 28.673016441504704 0.6833499116565445 7.994348251021543 1 0 0
169 3 28.83260689033007 4.073345600956252 3.1867428551011074 -2 2 0
168 2 28.861319995900445 4.085028696045918 0.08157972565480383 -2 2 0
383 5 21.912167524676956 0.5356734771420114 6.328498183930922 1 0 0
384 6 21.90929850843242 0.5264966508569421 9.645868045937517 1 0 0
194 1 32.35166951476801 3.03876525977144 1.6411386687564244 -2 2 0
192 2 36.20368481694098 0.2759776427483088 0.030246314297551282 -2 2 0
193 3 36.269689543088916 0.30281172197746226 3.13373436029476 -2 2 0
191 1 34.47298605554748 0.77432536180668 1.613189936455871 -2 2 0
166 3 30.966769083016203 1.8139426898751834 3.19218148349782 -2 2 0
165 2 30.980082191519045 1.8173845153855201 0.08181081607128075 -2 2 0
473 5 31.162697252298738 3.472531233244253 6.333180234868758 1 -1 0
474 6 31.152894700331853 3.4866269345730196 9.64939037540837 1 -1 0
164 1 29.215786143805907 2.3043533305728374 1.6281526674187659 -2 2 0
161 1 31.34320371514233 0.04493360689060262 1.635296689875645 -2 2 0
499 4 -2.7632731860814803 2.627567697919524 7.9911996705376325 2 0 0
469 4 31.749596934817298 1.653238086694203 7.991692057247722 1 0 0
471 6 33.589094888643054 1.2008127662610824 9.645858231742881 1 0 0
470 5 33.58553759122255 1.1933204541236744 6.3355177349414165 1 0 0
496 4 -0.32397124825690937 0.3500097359414338 7.985655452794869 2 0 0
248 2 -20.545076243373643 20.875565619870205 -0.22629966177760005 -1 1 0
249 3 -20.457139863650728 20.930456023343403 2.881817438493759 -1 1 0
218 1 -25.364137702145893 20.752147887843744 1.496394948412395 -1 1 0
220 3 -23.559777002504642 20.257692318280544 2.9970272532717677 -1 1 0
219 2 -23.6638706325144 20.21039025138815 -0.10998357074486514 -1 1 0
215 1 -23.247799894510603 18.46116666251862 1.4583082029083865 -1 1 0
295 4 8.312293562079716 0.10852428380429648 7.9823327056595845 1 0 0
525 6 -20.422023245717497 20.190218046827415 9.628972207101832 2 -1 0
524 5 -20.42245303764151 20.19489915780097 6.318246908892571 2 -1 0
523 4 -22.276117532707996 20.61456808781682 7.974646289737936 2 -1 0
216 2 -21.546110405632774 17.883062512969826 -0.13632045625512335 -1 1 0
217 3 -21.468218169536247 17.959810075118217 2.9679299850964505 -1 1 0
520 4 -19.817164412571657 18.37978987199683 7.967218808537995 2 -1 0
212 1 16.460813194086406 16.143030370453957 1.4469582696190237 -2 1 0
497 5 -25.97517944959174 21.430135360109183 6.323976173463018 2 -1 0
244 1 -20.140577083617583 19.127891311582804 1.3456246199769488 -1 1 0
498 6 -25.970645504118107 21.435166471325434 9.63724474170164 2 -1 0
495 6 -23.5202209397699 19.177224107839738 9.626335495440607 2 -1 0
494 5 -23.51586821655192 19.18240278014346 6.313250306198318 2 -1 0
491 5 -21.058056991025527 16.949318804249046 6.298729910580648 2 -1 0
20 1 -13.907967432241689 20.431639843697848 1.2321307356021944 -2 1 0
511 4 -12.47400704279411 11.682081305502834 7.950972924875783 2 -1 0
522 6 -17.963259140897275 17.96209628199535 9.625798088414722 2 -1 0
521 5 -17.955689596217074 17.96803003829016 6.315472262597611 2 -1 0
272 1 -17.030466814744102 19.78088525473415 1.2603409062360758 -1 1 0
274 3 -15.288669200797553 19.27578898736391 2.81592143864237 -1 1 0
273 2 -15.295203626585309 19.20352704135367 -0.29342843664046575 -1 1 0
297 6 -17.328514444293607 21.22103487582764 9.635514278617098 1 -1 0
296 5 -17.326773663211966 21.22069523029131 6.324226885300089 1 -1 0
246 3 -18.37839117486375 18.62605424433757 2.8747983824396823 -1 1 0
245 2 -18.431182710422313 18.53776105641456 -0.23305962415128187 -1 1 0
292 4 -16.713789154446882 19.4045550583396 7.9782049713459955 1 -1 0
294 6 -14.864212945161775 18.988433797901966 9.637412125842413 1 -1 0
241 1 -18.033813500365458 16.809098009610352 1.3671968941084114 -1 1 0
214 3 -19.370086230077877 15.645250218974112 2.9830907368411475 -1 1 0
213 2 -19.419116102700652 15.562180533972944 -0.1287875762873052 -1 1 0
322 4 -13.624496854650097 20.43468915969065 7.987140842273812 1 -1 0
323 5 -11.759089427075137 20.01997901654545 6.3302618223890095 1 -1 0
324 6 -11.769304727597495 20.01226025631108 9.645249128736197 1 -1 0
319 4 -11.16117544769026 18.19588218844728 7.981366775848989 1 -1 0
290 5 -12.393763261672866 16.76760102319698 6.314895464909855 1 -1 0
291 6 -12.402448279240252 16.74731442820542 9.62814739870253 1 -1 0
293 5 -14.85033988450699 18.99391958997569 6.328142852771818 1 -1 0
210 2 20.308162270564445 13.245172068094119 -0.0910660077101687 -2 1 0
211 3 20.32167863437819 13.31024025734421 3.0187888374904635 -2 1 0
289 4 -14.256360402821318 17.169929666922723 7.973250849691248 2 -1 0
540 4 -11.805604127097517 14.936412803419932 7.9599164346187425 2 -1 0
243 3 -16.291497147328506 16.317428296458125 2.9206058657652565 -1 1 0
242 2 -16.309750799525496 16.21302755810685 -0.19415692680221983 -1 1 0
238 1 -15.920139480025608 14.4906509043785 1.4227550516414833 -1 1 0
208 3 22.425821559463625 10.98327607040073 3.074557193136143 -2 1 0
269 1 -14.92732017670167 17.46396492283256 1.3123876902786924 -1 1 0
518 5 -15.495464969484308 15.739771001043799 6.30528689433646 2 -1 0
519 6 -15.502595163770955 15.731263028173059 9.619855016801335 2 -1 0
240 3 -14.187808525712166 13.999914949667469 2.9944886172208864 -1 1 0
239 2 -14.173392219993719 13.894643402829299 -0.10987260725644589 -1 1 0
516 6 -13.055692912161684 13.497236459304917 9.607366927919443 2 -1 0
515 5 -13.052678502423722 13.504056700794996 6.295720556626602 2 -1 0
235 1 -13.798223094258265 12.171177768893042 1.500781424475105 -1 1 0
517 4 -17.358209343310698 16.15074825488931 7.961565342562616 2 -1 0
271 3 -13.206124629340886 16.973850471690405 2.886038941196344 -1 1 0
270 2 -13.185011448825794 16.867772448780144 -0.22029692314478436 -1 1 0
514 4 -14.908543300999058 13.918969290232395 7.9533596583456365 2 -1 0
266 1 -12.814948708666826 15.146658225026599 1.398040464431987 -1 1 0
22 3 -12.192353985752803 19.912330073258854 2.8124410613774704 -2 1 0
21 2 -12.14556520800767 19.858114047670107 -0.29457059854097306 -2 1 0
237 3 -12.066404011988022 11.675155850225995 3.0843631710954416 -1 1 0
236 2 -12.041146698560347 11.593031511551628 -0.027333681287702524 -1 1 0
512 5 -10.61673405333692 11.25670780353607 6.296477577335959 2 -1 0
513 6 -10.6321869392045 11.266753585716678 9.616110821387853 2 -1 0
352 4 -10.530798358459425 21.463178118245335 7.992288084937719 1 -1 0
310 4 -3.8729858898531546 11.426723805446905 7.955878054927943 1 -1 0
50 2 -8.994164972798494 20.528111949477545 -0.23630827062081325 -2 1 0
51 3 -9.09027529476277 20.550965057327815 2.8745437586168303 -2 1 0
288 6 -9.957914329936083 14.5117454305961 9.613507872815454 1 -1 0
287 5 -9.953690695028877 14.520858110744825 6.297759024752165 1 -1 0
74 1 -5.5520496709462455 19.439569327537843 1.435122999970821 -2 1 0
321 6 -9.313754036785637 17.771497037051308 9.63945098452286 1 -1 0
286 6 -7.531324025844523 12.266558958066074 9.61469033045612 1 -1 0
285 5 -7.526087349743794 12.26376171429721 6.294979978859069 1 -1 0
539 4 -9.374578870550582 12.696336472170325 7.953519534127711 2 -1 0
320 5 -9.304111077931937 17.79222995714839 6.323159986457233 1 -1 0
46 1 -8.683140209292407 18.770493821669035 1.352598522364848 -2 1 0
354 6 -8.67218487504622 21.040440374148734 9.647093429552292 1 -1 0
316 4 -8.715660137377661 15.959358937320614 7.967355512320925 1 -1 0
353 5 -8.672339713808357 21.049727530534174 6.334050708730782 1 -1 0
17 1 -11.81108921971775 18.114721305677197 1.3037916583417335 -2 1 0
349 4 -8.07404158663179 19.226606472747562 7.9856704946324415 1 -1 0
315 6 -4.448186246998056 13.256736742774274 9.615125301243115 1 -1 0
314 5 -4.442372796688594 13.265140634461817 6.30311932533392 1 -1 0
313 4 -6.28783676759175 13.700724143923251 7.954128751641256 1 -1 0
19 3 -10.105556444053692 17.61687358756602 2.9066658902402898 -2 1 0
18 2 -10.033616823599301 17.541753318266256 -0.20605777074860931 -2 1 0
317 5 -6.867087988010558 15.536576673669435 6.302722066608813 1 -1 0
318 6 -6.867511308346151 15.524146008436206 9.622940411241927 1 -1 0
351 6 -6.223646756340566 18.780876128135308 9.63608502041037 1 -1 0
350 5 -6.219863877511418 18.798879838495125 6.323881209572706 1 -1 0
343 4 -3.206182568896079 14.698623925823595 7.96145999624193 1 -1 0
346 4 -5.630572810090551 16.967238237299256 7.968847729926448 1 -1 0
379 4 -4.983989421872461 20.230052668672023 7.985241010021334 1 -1 0
348 6 -3.7871887320920514 16.52009542489199 9.62491550643022 1 -1 0
347 5 -3.7793399356714055 16.53694987914292 6.311238844059306 1 -1 0
380 5 -3.1330996668099753 19.811457571921157 6.325699503949095 1 -1 0
381 6 -3.136172452887345 19.78177387665974 9.640219823168966 1 -1 0
268 3 -11.094338004812379 14.664823552073804 2.987658547568714 -1 1 0
267 2 -11.054815570320002 14.557728646665636 -0.12226151884761638 -1 1 0
263 1 -10.685809697929676 12.843796553895187 1.500554166470045 -1 1 0
14 1 -9.696782962834561 15.810952505485027 1.4080636479247106 -2 1 0
265 3 -8.955381591695582 12.359427585676958 3.0873672557353777 -1 1 0
264 2 -8.92498009743435 12.279241246490267 -0.023528213630945847 -1 1 0
260 1 -8.543360831097354 10.555013628993107 1.5813026024390047 -1 1 0
15 2 -7.920186818180959 15.243127438479522 -0.10300594019610228 -2 1 0
16 3 -7.986945540696892 15.322424533812416 3.008866692641357 -2 1 0
11 1 -7.561096494652446 13.521210377365707 1.5105468500346189 -2 1 0
48 3 -6.985277984623135 18.260922849682004 2.9622244892470673 -2 1 0
47 2 -6.89600184750284 18.22126185813055 -0.1482033177493261 -2 1 0
43 1 -6.569512777140572 16.47562894445638 1.4490888365725612 -2 1 0
13 3 -5.823080286078229 13.037390515933865 3.097034623702445 -2 1 0
12 2 -5.792606874809348 12.982235850383054 -0.01627652229223106 -2 1 0
282 1 -5.40540242901707 11.248465826107195 1.5733971417497778 -1 1 0
45 3 -4.855026636796074 15.989133952064298 3.055357489036718 -2 1 0
44 2 -4.772577990805903 15.94416311722662 -0.059032900262745894 -2 1 0
40 1 -4.42438362154443 14.208861245404622 1.5328332160502456 -2 1 0
75 2 -3.7578121337226382 18.912930509009033 -0.06069229103160412 -2 1 0
76 3 -3.8505238183709545 18.92903379743747 3.045487134039647 -2 1 0
10 3 -3.648060761660938 10.764180017081335 3.138881580514153 -2 1 0
9 2 -3.6455465113414904 10.732616331124987 0.02679787220706878 -2 1 0
367 4 4.70264926446786 11.139662337904724 7.943089262365921 1 -1 0
134 1 0.7156737553823209 20.842918082028888 1.6046463425368847 -2 1 0
376 4 -2.548098374873577 17.966459074587842 7.972796467899435 1 -1 0
136 3 2.4618845495624826 20.349709088558583 3.183503933660573 -2 1 0
104 1 -2.4207640630876037 20.126719248048804 1.5292717383842842 -2 1 0
135 2 2.4871159464025925 20.35272262014753 0.07403285167282256 -2 1 0
409 4 -1.902582316924682 21.229519313502458 7.987951652793594 1 -1 0
342 6 1.0484831558183416 11.980106682269685 9.599245915594611 1 -1 0
341 5 1.0502023307429444 11.98097271939129 6.287794126897433 1 -1 0
105 2 -0.6281794925070112 19.63098001811105 0.020674858064314613 -2 1 0
106 3 -0.6982097926382274 19.63000607499271 3.1309133612502316 -2 1 0
345 6 -1.3588124493790077 14.248405291526739 9.610465017169666 1 -1 0
344 5 -1.36058654258091 14.267695646948193 6.299413084044606 1 -1 0
340 4 -0.792650507437163 12.423054823474477 7.950587762355193 1 -1 0
378 6 -0.7061876970351219 17.515186845582058 9.628918021673304 1 -1 0
377 5 -0.7032004107681668 17.538836494518673 6.3141796372999135 1 -1 0
373 4 -0.12152385820200579 15.696702455687154 7.961121446593659 1 -1 0
372 6 4.127408268585556 12.966395742351606 9.602874485507535 1 -1 0
371 5 4.126774816560198 12.973719336648124 6.288772921785213 1 -1 0
411 6 -0.061210474907417455 20.7728664522729 9.648564119583078 1 -1 0
410 5 -0.0574465155862809 20.791534524899756 6.331686252100023 1 -1 0
101 1 -0.29011244389597884 17.862373736271273 1.5888432642581292 -2 1 0
406 4 0.5353922210314085 18.95818739542457 7.9816836814054355 1 -1 0
370 4 2.291964746820516 13.415318149471469 7.94515016065569 1 -1 0
71 1 -3.4300590487827756 17.15684262310008 1.5199618717320085 -2 1 0
72 2 -1.636307729276431 16.655997285595767 0.0019402305167592084 -2 1 0
375 6 1.7171297990799754 15.234422060777693 9.613879823851125 1 -1 0
374 5 1.7218276954709597 15.258464348518697 6.298234715603724 1 -1 0
403 4 2.955531470552368 16.677700134751166 7.9660795084704334 1 -1 0
407 5 2.374724495523274 18.515352836464963 6.318809590519746 1 -1 0
408 6 2.36905887785129 18.49207805537809 9.64038278979017 1 -1 0
441 6 30.51586472734478 0.22801395377367517 9.650254719553605 1 0 0
440 5 30.51549746034054 0.23067948659411036 6.33789234769755 1 0 0