2937
Lattice="63.20429275652589 32.84190614350104 0.0 -3.1602213492868323 -71.15747622713073 0.0 0.0 0.0 100.0" Properties=species:S:1:pos:R:3:forces:R:3 spacegroup="P 63/m m c" unit_cell=conventional occupancy="_JSON {\"0\": {\"Mo\": 1.0}, \"1\": {\"S\": 1.0}}" thickness=3.1718520000000003 dz=2.9751480000000003 energy=-5758.028931788127 pbc="T T T"
S       -1.54829476     -70.26110644      11.92328484       0.00001069      -0.00002002      -0.00024232
S       -1.60127720     -70.29106042      15.03561219       0.00005992       0.00002387      -0.00025181
Mo       0.00916619     -69.39762948      13.52778873       0.00000196      -0.00002943      -0.00032155
Mo      -1.51198178     -66.65130341      13.58104143       0.00005965       0.00003094      -0.00032968
S        0.09028523     -67.52811065      12.03044059       0.00002024      -0.00000444      -0.00036344
S       -0.01027382     -67.64539846      15.13938615       0.00006547       0.00008678      -0.00034655
S       -1.46138761     -64.74291171      12.13379768       0.00002225       0.00001966      -0.00042464
S       -1.50579576     -64.94052169      15.23985065       0.00001345       0.00007906      -0.00039880
Mo       1.62046435     -66.70424730      13.68060260       0.00003126       0.00006599      -0.00042869
S        3.26569447     -67.58599351      12.18113225       0.00004328       0.00006299      -0.00043271
S        3.07893660     -67.69019995      15.28641558       0.00007440       0.00007094      -0.00042023
Mo       0.09570804     -63.95745244      13.77653686       0.00001361       0.00011935      -0.00043836
S        1.71464595     -64.80160952      12.22678271       0.00007393       0.00010275      -0.00040153
S        1.58223892     -64.98514818      15.33114441       0.00003502       0.00008980      -0.00040608
Mo      -1.43592671     -61.21081668      13.95360246       0.00001583       0.00004132      -0.00040602
S        0.15726206     -62.02565053      12.36126440      -0.00000508       0.00011565      -0.00037086
S        0.08007279     -62.26910529      15.46318068      -0.00010774       0.00005551      -0.00042445
S       -1.40675997     -59.26309530      12.56025493      -0.00018747       0.00014668      -0.00030280
S       -1.43526790     -59.53709488      15.66005096      -0.00024259       0.00001525      -0.00037491
Mo       4.74989109     -66.75032157      13.86612975       0.00002267       0.00010754      -0.00042793
Mo       3.22448434     -64.00404147      13.90667420      -0.00000858       0.00004221      -0.00036991
S        4.87686722     -64.85766191      12.40052179       0.00007365       0.00021907      -0.00036753
S        4.67897968     -65.01668083      15.50242439      -0.00002514       0.00009077      -0.00037188
Mo       1.69369725     -61.25590148      14.02870232      -0.00002621       0.00011657      -0.00029984
S        3.32110167     -62.08131228      12.47903917       0.00005805       0.00025754      -0.00028960
S        3.17553417     -62.30178064      15.58003529      -0.00013299       0.00007412      -0.00022916
Mo       0.15334310     -58.50572851      14.20984062      -0.00019193       0.00017140      -0.00028167
S        1.75745240     -59.31414787      12.62582038      -0.00002604       0.00018215      -0.00023716
S        1.66277519     -59.57185588      15.72556531      -0.00025302       0.00000175      -0.00015929
Mo      -1.40007439     -55.75247629      14.42149291      -0.00047838       0.00008284      -0.00022030
S        0.18509841     -56.55745232      12.81478973      -0.00016668       0.00006760      -0.00023028
S        0.13445394     -56.82402789      15.91411976      -0.00031673      -0.00006373      -0.00014018
S       -1.39674292     -53.80814875      13.01960174      -0.00037184      -0.00001280      -0.00015091
S       -1.41165014     -54.05989050      16.11956400      -0.00035965      -0.00006242      -0.00022599
Mo       6.35127193     -64.04000602      14.10157209      -0.00004006       0.00019369      -0.00023361
S        8.02413307     -64.90345640      12.62617941       0.00006105       0.00028447      -0.00025551
S        7.79070736     -65.03103305      15.72646053      -0.00007072       0.00013753      -0.00023447
Mo       4.82034706     -61.29298581      14.17105498      -0.00004590       0.00016932      -0.00011347
S        6.47144039     -62.13077416      12.65562186      -0.00000878       0.00032893      -0.00008956
S        6.28190599     -62.31775366      15.75594783      -0.00016045       0.00005892      -0.00010768
Mo       3.28158229     -58.54270901      14.30202825      -0.00010875       0.00012176      -0.00001197
S        4.91075528     -59.36249807      12.75172830      -0.00006468       0.00030687       0.00009781
S        4.76794235     -59.59158324      15.85151819      -0.00031737       0.00006826       0.00003066
Mo       1.73121853     -55.78845447      14.47069067      -0.00023019       0.00002754      -0.00005486
S        3.34106711     -56.60207014      12.89495398      -0.00017377       0.00021970       0.00011122
S        3.24133833     -56.84860972      15.99457305      -0.00047573       0.00008992       0.00004374
Mo       0.16752638     -53.02960876      14.65308470      -0.00047507      -0.00006253      -0.00015584
S        1.76164338     -53.84829738      13.06137676      -0.00031897       0.00012367      -0.00007182
S        1.69878432     -54.08853026      16.16166522      -0.00056955       0.00008422       0.00000519
Mo      -1.40929540     -50.26678541      14.83152777      -0.00047202      -0.00005804      -0.00031191
S        0.17229697     -51.09788844      13.23091021      -0.00043852       0.00007568      -0.00018461
S        0.14059582     -51.31477437      16.33249897      -0.00053611       0.00011820      -0.00018683
S       -1.42625331     -48.34834338      13.39082030      -0.00051411      -0.00008274      -0.00037000
S       -1.43099254     -48.53268412      16.49397359      -0.00049678       0.00002993      -0.00027445
Mo       9.47954890     -64.06087847      14.33153162      -0.00008670       0.00024800      -0.00013584
Mo       7.94686136     -61.31669369      14.35660038      -0.00009937       0.00022498       0.00008383
S        9.61022155     -62.16756170      12.86367334      -0.00011494       0.00038946       0.00001820
S        9.40280156     -62.31540543      15.96410182      -0.00015944       0.00013908       0.00000671
Mo       6.40872542     -58.56862253      14.44140509      -0.00022826       0.00019051       0.00025379
S        8.05315391     -59.40112795      12.91591070      -0.00016974       0.00039506       0.00026016
S        7.88499549     -59.59327977      16.01624214      -0.00027448       0.00010805       0.00024646
Mo       4.86049815     -55.81620270      14.56798859      -0.00041507       0.00027327       0.00027366
S        6.48746115     -56.63969762      13.01694035      -0.00019761       0.00029756       0.00035858
S        6.35742830     -56.85681622      16.11711555      -0.00041740       0.00014021       0.00039591
Mo       3.29985776     -53.05861290      14.71439598      -0.00047207       0.00031838       0.00010076
S        4.91212811     -53.88398590      13.14640928      -0.00030623       0.00016561       0.00029750
S        4.81545122     -54.10388727      16.24702516      -0.00059173       0.00016223       0.00028288
Mo       1.72658934     -50.29576885      14.86221214      -0.00066447       0.00018205      -0.00010301
S        3.32666777     -51.13163613      13.28430755      -0.00037065       0.00006488       0.00006362
S        3.25854417     -51.33590388      16.38604087      -0.00065505       0.00015080       0.00003308
Mo       0.14181477     -47.52883337      14.99992491      -0.00060787      -0.00001740      -0.00038151
S        1.73130995     -48.37983559      13.41640020      -0.00044511       0.00009556      -0.00017867
S        1.68879089     -48.55679947      16.51959620      -0.00066427       0.00019507      -0.00025346
Mo      -1.45281976     -44.75941156      15.12138774      -0.00045428      -0.00003073      -0.00050677
S        0.12713123     -45.62725365      13.53481608      -0.00048967       0.00008757      -0.00042820
S        0.10845583     -45.77099331      16.63939594      -0.00064265       0.00018815      -0.00045107
S       -1.48363178     -42.87379506      13.63571177      -0.00043463       0.00001089      -0.00059711
S       -1.48002002     -42.98186760      16.74136518      -0.00048158       0.00005756      -0.00059722
Mo      11.07618982     -61.32448996      14.55977171      -0.00018154       0.00033474       0.00006509
S       12.74203686     -62.18846609      13.07807925      -0.00022247       0.00039672      -0.00003291
S       12.53796987     -62.29650237      16.17951076      -0.00010980       0.00025974      -0.00001774
Mo       9.53753642     -58.57976088      14.60568384      -0.00032328       0.00033649       0.00034099
S       11.18790759     -59.42572342      13.09531483      -0.00032409       0.00042320       0.00023230
S       11.01496214     -59.57729103      16.19673911      -0.00018997       0.00018332       0.00024738
Mo       7.99057488     -55.83092817      14.69511031      -0.00047483       0.00024526       0.00050817
S        9.62614408     -56.66523400      13.16040329      -0.00043247       0.00036592       0.00047485
S        9.48515470     -56.84732873      16.26162033      -0.00040251       0.00020435       0.00049061
Mo       6.43219443     -53.07712510      14.80910955      -0.00051846       0.00018342       0.00042575
S        8.05528195     -53.90951179      13.25771368      -0.00050929       0.00031855       0.00053462
S        7.94250027     -54.10293380      16.35899340      -0.00061830       0.00032526       0.00051001
Mo       4.86157063     -50.31769361      14.92896931      -0.00064665       0.00032171       0.00018012
S        6.47450539     -51.15750237      13.36811027      -0.00050490       0.00026320       0.00030729
S        6.38519537     -51.34354955      16.47005745      -0.00071838       0.00037267       0.00039959
Mo       3.27958501     -47.55293056      15.04135641      -0.00064350       0.00017817      -0.00010052
S        4.88369232     -48.40650701      13.47579351      -0.00050601       0.00021723       0.00008099
S        4.81481485     -48.57146579      16.57892796      -0.00079873       0.00032955       0.00012661
Mo       1.68787289     -44.78413938      15.13910578      -0.00057828       0.00019471      -0.00037095
S        3.28347437     -45.65440952      13.57112620      -0.00039084       0.00023534      -0.00020044
S        3.23425530     -45.79036458      16.67562685      -0.00069699       0.00031106      -0.00014669
Mo       0.08856303     -42.01274099      15.21913699      -0.00045966      -0.00001716      -0.00060027
S        1.67531633     -42.90061491      13.64961261      -0.00029995       0.00021137      -0.00036912
S        1.64631516     -43.00368220      16.75534151      -0.00056646       0.00025284      -0.00041955
Mo      -1.51655299     -39.23960761      15.27987098      -0.00036324       0.00001456      -0.00066170
S        0.06110411     -40.14561376      13.70953501      -0.00016355       0.00018475      -0.00058541
S        0.05292319     -40.21361796      16.81594800      -0.00030946       0.00020038      -0.00054971
S       -1.55531463     -37.39114548      13.74840517      -0.00012181       0.00002161      -0.00061407
S       -1.54379394     -37.42180969      16.85563303      -0.00011067       0.00000009      -0.00064607
Mo      14.21012445     -61.31761687      14.75976396      -0.00020922       0.00037625      -0.00005887
Mo      12.67003189     -58.57566352      14.77476860      -0.00032771       0.00036054       0.00022102
S       14.31899594     -59.43563771      13.27149060      -0.00043062       0.00045299      -0.00001365
S       14.15637328     -59.54677475      16.37412060      -0.00014749       0.00031154       0.00000241
Mo      11.12354925     -55.83077132      14.83312734      -0.00041809       0.00033347       0.00046985
S       12.76034025     -56.67685292      13.30720485      -0.00060770       0.00045513       0.00031044
S       12.62374815     -56.82178887      16.40981865      -0.00034512       0.00029335       0.00030935
Mo       9.56686912     -53.08179213      14.91992008      -0.00059883       0.00031717       0.00054410
S       11.19345728     -53.92197225      13.37773024      -0.00070527       0.00037704       0.00047829
S       11.08035906     -54.08545473      16.48007437      -0.00053968       0.00037040       0.00048093
Mo       7.99834818     -50.32771521      15.01697771      -0.00072581       0.00042802       0.00044361
S        9.61718398     -51.17133304      13.46587771      -0.00067444       0.00032728       0.00046018
S        9.52270112     -51.33551484      16.56837367      -0.00067947       0.00043503       0.00050363
Mo       6.41837485     -47.56807360      15.10921655      -0.00057933       0.00051824       0.00017457
S        8.03106489     -48.42281236      13.55486120      -0.00064573       0.00031355       0.00034684
S        7.95118894     -48.57260448      16.65805251      -0.00076811       0.00042308       0.00034049
Mo       4.82858748     -44.80337440      15.18736104      -0.00065931       0.00058592      -0.00001419
S        6.43542257     -45.67383110      13.63274496      -0.00044567       0.00027883       0.00012114
S        6.36866396     -45.79925741      16.73699313      -0.00068761       0.00036692       0.00019082
Mo       3.23104182     -42.03480422      15.24713996      -0.00055263       0.00050140      -0.00026580
S        4.83132549     -42.92295735      13.69316723      -0.00021602       0.00025919      -0.00006028
S        4.77848287     -43.01849748      16.79858159      -0.00052982       0.00030906      -0.00007679
Mo       1.62782802     -39.26367681      15.28692527      -0.00037087       0.00019755      -0.00044236
S        3.22041174     -40.17018651      13.73357748      -0.00000386       0.00023887      -0.00024393
S        3.18342250     -40.23279027      16.84000634      -0.00034058       0.00028117      -0.00033949
Mo       0.02130544     -36.49139454      15.30550469      -0.00004467       0.00011485      -0.00062816
S        1.60520242     -37.41633281      13.75293147       0.00012329       0.00022614      -0.00049289
S        1.58571715     -37.44385978      16.86001708      -0.00011668       0.00023723      -0.00049990
S       -0.01219605     -34.66226880      13.75066354       0.00020492       0.00011043      -0.00057940
S       -0.01253827     -34.65342495      16.85807909       0.00010861       0.00009854      -0.00066009
Mo      15.80700525     -58.55795466      14.93372497      -0.00030807       0.00042354      -0.00010490
S       17.44992122     -59.43077780      13.43138910      -0.00039971       0.00042449      -0.00028931
S       17.30687077     -59.50462370      16.53551067      -0.00013162       0.00042851      -0.00028985
Mo      14.26028947     -55.81658893      14.96689316      -0.00043890       0.00044211       0.00012953
S       15.89272707     -56.67516807      13.44404496      -0.00062261       0.00047792      -0.00004263
S       15.77094448     -56.78340556      16.54813209      -0.00024991       0.00034103      -0.00005318
Mo      12.70507406     -53.07219940      15.03123063      -0.00068040       0.00046776       0.00041654
S       14.32913118     -53.92149728      13.49242081      -0.00075619       0.00039717       0.00020519
S       14.22718474     -54.05357909      16.59610125      -0.00044185       0.00036147       0.00021386
Mo      11.13856132     -50.32382529      15.11045219      -0.00080366       0.00039812       0.00036480
S       12.75687960     -51.17220360      13.56268322      -0.00085513       0.00035497       0.00033268
S       12.67012518     -51.31234623      16.66607819      -0.00062942       0.00040094       0.00033530
Mo       9.56039333     -47.57055306      15.18841669      -0.00073802       0.00051978       0.00031948
S       11.17507725     -48.42634957      13.63818990      -0.00079012       0.00038246       0.00034608
S       11.09851144     -48.55898114      16.74174825      -0.00068939       0.00048186       0.00036052
Mo       7.97193039     -44.81211539      15.25345975      -0.00061914       0.00059464       0.00024437
S        9.58380232     -45.68143402      13.70501201      -0.00061657       0.00039111       0.00029275
S        9.51433797     -45.79482237      16.80917156      -0.00065768       0.00045926       0.00030827
Mo       6.37527590     -42.04903754      15.29922672      -0.00042345       0.00047964       0.00013001
S        7.98390004     -42.93527613      13.75435383      -0.00036682       0.00041580       0.00023764
S        7.92108953     -43.02220168      16.85936460      -0.00056061       0.00045060       0.00020017
Mo       4.77266199     -39.28230871      15.32308363      -0.00028299       0.00051945      -0.00013007
S        6.37677035     -40.18696928      13.78198170      -0.00001886       0.00041564       0.00004760
S        6.32219325     -40.24336236      16.88787013      -0.00030752       0.00045703       0.00008670
Mo       3.16634427     -36.51296164      15.32412860       0.00000831       0.00035906      -0.00039632
S        4.76429624     -37.43671199      13.78632853       0.00023950       0.00032748      -0.00011488
S        4.72050539     -37.46000374      16.89295127      -0.00007553       0.00040440      -0.00018908
Mo       1.55832321     -33.74207196      15.30203304       0.00027572       0.00017560      -0.00059870
S        3.14849082     -34.68517648      13.76692660       0.00038519       0.00025324      -0.00038976
S        3.11833460     -34.67337141      16.87397173       0.00014939       0.00031828      -0.00042541
Mo      -0.05000635     -30.97057256      15.25702589       0.00034101       0.00009103      -0.00060707
S        1.53105943     -31.93295612      13.72393488       0.00052582       0.00018765      -0.00055313
S        1.51724054     -31.88477326      16.83091480       0.00037854       0.00017163      -0.00056515
S       -0.08588698     -29.18047295      13.65816881       0.00050449       0.00008786      -0.00054742
S       -0.08072161     -29.09551378      16.76449790       0.00046654      -0.00003250      -0.00059407
Mo      18.94870412     -58.52952884      15.07318089      -0.00025304       0.00042360      -0.00038833
Mo      17.40084761     -55.79099471      15.08595406      -0.00042644       0.00041204      -0.00021446
S       19.02531969     -56.66258157      13.56234795      -0.00050632       0.00046848      -0.00039092
S       18.92460917     -56.73575411      16.66775123      -0.00023093       0.00038609      -0.00041004
Mo      15.84687870     -53.05025424      15.13152086      -0.00064741       0.00041903       0.00003592
S       17.46401264     -53.91018383      13.59213306      -0.00073022       0.00045441      -0.00017884
S       17.38062615     -54.01059679      16.69715981      -0.00040145       0.00035711      -0.00016252
Mo      14.28263541     -50.30682457      15.19644331      -0.00072379       0.00037551       0.00018974
S       15.89532690     -51.16172230      13.64744781      -0.00088776       0.00041265       0.00006059
S       15.82514893     -51.27649350      16.75194655      -0.00063081       0.00037850       0.00004781
Mo      12.70663830     -47.55970978      15.26468845      -0.00079827       0.00037511       0.00030038
S       14.31754030     -48.41774287      13.71299003      -0.00086477       0.00041300       0.00016563
S       14.25503490     -48.53180036      16.81721479      -0.00070890       0.00041065       0.00016700
Mo      11.11961120     -44.80816084      15.32269895      -0.00062085       0.00042240       0.00033981
S       12.73028833     -45.67641227      13.77372725      -0.00073074       0.00047070       0.00025378
S       12.67086337     -45.77682791      16.87808511      -0.00068356       0.00043392       0.00025785
Mo       9.52357356     -42.05204191      15.36167902      -0.00036328       0.00049119       0.00027097
S       11.13423085     -42.93527688      13.81855965      -0.00050193       0.00051113       0.00031781
S       11.07558329     -43.01317420      16.92336745      -0.00053519       0.00046875       0.00031469
Mo       7.92092349     -39.29179137      15.37716186      -0.00018719       0.00046056       0.00016853
S        9.53068406     -40.19263229      13.84102745      -0.00015583       0.00050199       0.00031619
S        9.47288085     -40.24271702      16.94643029      -0.00030466       0.00052069       0.00030432
Mo       6.31402686     -36.52817591      15.36734766       0.00014109       0.00037993      -0.00005603
S        7.92135739     -37.44794195      13.83811368       0.00016746       0.00047574       0.00016173
S        7.86616898     -37.46700955      16.94410110      -0.00006056       0.00057417       0.00013247
Mo       4.70506362     -33.76202180      15.33164591       0.00040094       0.00040722      -0.00025033
S        6.30810957     -34.70147570      13.80865819       0.00045985       0.00041926      -0.00013041
S        6.25831251     -34.68718340      16.91506549       0.00018695       0.00055177      -0.00010976
Mo       3.09588301     -30.99419495      15.27026915       0.00046295       0.00021825      -0.00043927
S        4.69269435     -31.95372187      13.75247154       0.00064444       0.00035469      -0.00032801
S        4.65171451     -31.90424335      16.85899134       0.00039945       0.00037604      -0.00035991
Mo       1.48855768     -28.22558401      15.18429047       0.00050781       0.00014271      -0.00047274
S        3.07696748     -29.20516606      13.67022345       0.00070669       0.00031280      -0.00042085
S        3.04871264     -29.11933862      16.77644250       0.00048804       0.00020008      -0.00042168
Mo      -0.11471420     -25.45703990      15.07583028       0.00049680      -0.00001239      -0.00040936
S        1.46294382     -26.45620347      13.56360934       0.00065501       0.00022600      -0.00034424
S        1.45166719     -26.33366928      16.66904239       0.00046261       0.00000273      -0.00037141
S       -0.14710075     -23.70769840      13.43496193       0.00056068       0.00012917      -0.00024514
S       -0.13742912     -23.54830980      16.53919251       0.00041865      -0.00009477      -0.00022874
Mo      20.54475015     -55.75694946      15.18372984      -0.00032696       0.00035454      -0.00056706
S       22.15863222     -56.64230217      13.65692588      -0.00034025       0.00037653      -0.00059987
S       22.08285460     -56.68202762      16.76329509      -0.00019539       0.00039293      -0.00060135
Mo      18.99174372     -53.01884848      15.21311528      -0.00054511       0.00037308      -0.00025592
S       20.59889717     -53.89080729      13.67063383      -0.00060013       0.00043215      -0.00045195
S       20.53867124     -53.95972918      16.77682942      -0.00040026       0.00031355      -0.00043956
Mo      17.43005872     -50.27917444      15.26587399      -0.00067625       0.00035222      -0.00008903
S       19.03338303     -51.14260409      13.71280044      -0.00079178       0.00044530      -0.00019170
S       18.98537520     -51.23106373      16.81839893      -0.00060633       0.00028820      -0.00023241
Mo      15.85692348     -47.53716807      15.32710765      -0.00078746       0.00033806       0.00010819
S       17.45955635     -48.39940370      13.77025538      -0.00083463       0.00040588      -0.00000101
S       17.41818344     -48.49365092      16.87529115      -0.00071693       0.00027661       0.00000741
Mo      14.27208170     -44.79192995      15.38224698      -0.00066895       0.00035757       0.00020495
S       15.87631594     -45.66041015      13.82785893      -0.00076867       0.00041526       0.00017389
S       15.83599287     -45.74699246      16.93264692      -0.00070153       0.00027311       0.00018804
Mo      12.67711990     -42.04289148      15.42035273      -0.00046657       0.00046706       0.00033979
S       14.28393045     -42.92341296      13.87281181      -0.00052906       0.00044573       0.00033515
S       14.24072041     -42.99202880      16.97767848      -0.00053686       0.00033375       0.00033338
Mo      11.07447215     -39.28998885      15.43481233      -0.00018142       0.00044538       0.00034087
S       12.68363775     -40.18627430      13.89647552      -0.00027068       0.00045766       0.00038550
S       12.63579505     -40.23026922      17.00162477      -0.00032481       0.00040675       0.00038207
Mo       9.46672073     -36.53359262      15.42226815       0.00011063       0.00052845       0.00025324
S       11.07717947     -37.44776755      13.89398025       0.00012510       0.00047902       0.00033067
S       11.02488859     -37.46310352      16.99947055      -0.00002001       0.00054179       0.00031928
Mo       7.85629962     -33.77426829      15.38117920       0.00043462       0.00046001       0.00001874
S        9.46649778     -34.70761651      13.86288888       0.00042775       0.00044806       0.00015684
S        9.41132310     -34.69154909      16.96865163       0.00020640       0.00057001       0.00012543
Mo       6.24540122     -31.01266792      15.31104839       0.00057022       0.00042317      -0.00023490
S        7.85345536     -31.96606366      13.80209610       0.00067784       0.00045830      -0.00008000
S        7.79802014     -31.91641195      16.90793467       0.00045903       0.00053024      -0.00007516
Mo       4.63614006     -28.24950122      15.21237090       0.00058785       0.00028845      -0.00029822
S        6.23982293     -29.22345440      13.71147149       0.00078316       0.00044768      -0.00016502
S        6.18772405     -29.13853027      16.81710544       0.00057337       0.00036633      -0.00018270
Mo       3.03064340     -25.48546092      15.08674889       0.00059651       0.00018374      -0.00022063
S        4.62734043     -26.48012341      13.59197383       0.00076491       0.00040600      -0.00012975
S        4.58311459     -26.35882843      16.69704520       0.00053641       0.00018352      -0.00012773
Mo       1.43091229     -22.72144726      14.93655638       0.00054103       0.00007910      -0.00005367
S        3.01786306     -23.73650043      13.44557351       0.00070308       0.00029785      -0.00001626
S        2.98664267     -23.57819207      16.54969247       0.00043057       0.00004542      -0.00002606
Mo      -0.16146346     -19.95856968      14.76438111       0.00042663      -0.00002134       0.00002098
S        1.41340181     -20.99322519      13.27491262       0.00061065       0.00016214       0.00006868
S        1.40018724     -20.79787048      16.37751871       0.00034001      -0.00002794       0.00006025
S       -0.18272152     -18.25095808      13.08322336       0.00044390       0.00001322       0.00002777
S       -0.17269362     -18.02115917      16.18462169       0.00028418      -0.00000194       0.00002842
Mo      23.69135015     -55.71748688      15.25603877      -0.00019397       0.00034231      -0.00065324
Mo      22.13888827     -52.98093032      15.27105763      -0.00042618       0.00030086      -0.00051856
S       23.73398461     -53.86615019      13.72398303      -0.00042981       0.00032064      -0.00058069
S       23.69975559     -53.90387671      16.83094041      -0.00033816       0.00018755      -0.00060723
Mo      20.57989153     -50.24382553      15.31281338      -0.00063984       0.00029072      -0.00025979
S       22.17123972     -51.11766207      13.75402246      -0.00063313       0.00037186      -0.00034071
S       22.14885764     -51.17906330      16.86050768      -0.00052082       0.00014926      -0.00040398
Mo      19.01032633     -47.50564417      15.36830450      -0.00074692       0.00030802      -0.00001094
S       20.60141678     -48.37424844      13.80416269      -0.00074342       0.00033877      -0.00012459
S       20.58555258     -48.44750185      16.90996555      -0.00068414       0.00010662      -0.00008628
Mo      17.42871326     -44.76556584      15.42281007      -0.00067292       0.00029848       0.00021889
S       19.02250149     -45.63621418      13.85997181      -0.00071301       0.00031997       0.00014141
S       19.00705384     -45.70798956      16.96527266      -0.00070810       0.00009359       0.00013140
Mo      15.83587012     -42.02282770      15.46383391      -0.00054969       0.00030459       0.00032903
S       17.43408484     -42.90195317      13.90763954      -0.00055562       0.00031372       0.00032400
S       17.41395160     -42.96087098      17.01273279      -0.00055670       0.00013189       0.00029987
Mo      14.23398618     -39.27703269      15.48276728      -0.00020470       0.00041132       0.00044802
S       15.83710498     -40.16926879      13.93669951      -0.00032324       0.00033211       0.00042670
S       15.80903506     -40.20733108      17.04181707      -0.00036342       0.00024237       0.00042816
Mo      12.62579024     -36.52817957      15.47452185       0.00002301       0.00043780       0.00039980
S       14.23333088     -37.43646192      13.94046124       0.00002855       0.00036078       0.00042855
S       14.19590252     -37.44863326      17.04571026      -0.00005958       0.00036125       0.00042308
Mo      11.01395611     -33.77655908      15.43628752       0.00041422       0.00051442       0.00016241
S       12.62488507     -34.70270949      13.91505726       0.00036875       0.00041501       0.00035159
S       12.57810115     -34.68574402      17.02040972       0.00020941       0.00049333       0.00033398
Mo       9.40100146     -31.02261593      15.36651315       0.00058361       0.00049671      -0.00000957
S       11.01390445     -31.96789080      13.85826802       0.00064721       0.00042924       0.00015180