216
Lattice="18.961260000000003 0.0 0.0 -9.480629999999996 16.420932847761726 0.0 0.0 0.0 12.294" Properties=species:S:1:pos:R:3:spacegroup_kinds:I:1:atom_types:I:1:energies:R:1:forces:R:3 energy=-272.149380730444 free_energy=-272.149380730444 stress="0.01987901279663464 1.8093862773721512e-16 6.82952707350595e-17 1.8093862773721512e-16 0.019879012796634767 4.628346725511961e-18 6.82952707350595e-17 4.628346725511961e-18 -0.0020728906650459293" pbc="T T T"
Mo       0.00000000       0.00000000       2.00000000        0        0      -1.86256402      -0.00000000       0.00000000      -0.00000007
S       -7.90052500      15.50902371       0.41407400        1        2      -0.92578603       0.00000000       0.00000000      -0.00000007
S       -7.90052500      15.50902371       3.58592600        1        1      -0.99150246      -0.00000000      -0.00000000      -0.00000006
Mo       0.00000000       0.00000000       8.17185200        0        3      -1.86256402       0.00000000       0.00000000       0.00000007
S       -7.90052500      15.50902371       6.58592600        1        5      -0.99150246      -0.00000000      -0.00000000       0.00000006
S       -7.90052500      15.50902371       9.75777800        1        4      -0.92578603       0.00000000       0.00000000       0.00000007
Mo      -1.58010500       2.73682214       2.00000000        0        0      -1.86256402       0.00000000       0.00000000      -0.00000007
S        0.00000000       1.82491300       0.41407400        1        2      -0.92578603       0.00000000      -0.00000000      -0.00000007
S        0.00000000       1.82491300       3.58592600        1        1      -0.99150246      -0.00000000       0.00000000      -0.00000006
Mo      -1.58010500       2.73682214       8.17185200        0        3      -1.86256402      -0.00000000       0.00000000       0.00000007
S        0.00000000       1.82491300       6.58592600        1        5      -0.99150246      -0.00000000       0.00000000       0.00000006
S        0.00000000       1.82491300       9.75777800        1        4      -0.92578603       0.00000000      -0.00000000       0.00000007
Mo      -3.16021000       5.47364428       2.00000000        0        0      -1.86256402      -0.00000000       0.00000000      -0.00000007
S       -1.58010500       4.56173514       0.41407400        1        2      -0.92578603       0.00000000      -0.00000000      -0.00000007
S       -1.58010500       4.56173514       3.58592600        1        1      -0.99150246      -0.00000000       0.00000000      -0.00000006
Mo      -3.16021000       5.47364428       8.17185200        0        3      -1.86256402       0.00000000       0.00000000       0.00000007
S       -1.58010500       4.56173514       6.58592600        1        5      -0.99150246       0.00000000       0.00000000       0.00000006
S       -1.58010500       4.56173514       9.75777800        1        4      -0.92578603      -0.00000000      -0.00000000       0.00000007
Mo      -4.74031500       8.21046642       2.00000000        0        0      -1.86256402       0.00000000       0.00000000      -0.00000007
S       -3.16021000       7.29855728       0.41407400        1        2      -0.92578603      -0.00000000      -0.00000000      -0.00000007
S       -3.16021000       7.29855728       3.58592600        1        1      -0.99150246       0.00000000       0.00000000      -0.00000006
Mo      -4.74031500       8.21046642       8.17185200        0        3      -1.86256402       0.00000000      -0.00000000       0.00000007
S       -3.16021000       7.29855728       6.58592600        1        5      -0.99150246       0.00000000       0.00000000       0.00000006
S       -3.16021000       7.29855728       9.75777800        1        4      -0.92578603      -0.00000000      -0.00000000       0.00000007
Mo      -6.32042000      10.94728857       2.00000000        0        0      -1.86256402       0.00000000      -0.00000000      -0.00000007
S       -4.74031500      10.03537943       0.41407400        1        2      -0.92578603      -0.00000000       0.00000000      -0.00000007
S       -4.74031500      10.03537943       3.58592600        1        1      -0.99150246       0.00000000      -0.00000000      -0.00000006
Mo      -6.32042000      10.94728857       8.17185200        0        3      -1.86256402       0.00000000      -0.00000000       0.00000007
S       -4.74031500      10.03537943       6.58592600        1        5      -0.99150246       0.00000000      -0.00000000       0.00000006
S       -4.74031500      10.03537943       9.75777800        1        4      -0.92578603      -0.00000000       0.00000000       0.00000007
Mo      -7.90052500      13.68411071       2.00000000        0        0      -1.86256402      -0.00000000       0.00000000      -0.00000007
S       -6.32042000      12.77220157       0.41407400        1        2      -0.92578603      -0.00000000       0.00000000      -0.00000007
S       -6.32042000      12.77220157       3.58592600        1        1      -0.99150246       0.00000000      -0.00000000      -0.00000006
Mo      -7.90052500      13.68411071       8.17185200        0        3      -1.86256402      -0.00000000      -0.00000000       0.00000007
S       -6.32042000      12.77220157       6.58592600        1        5      -0.99150246      -0.00000000      -0.00000000       0.00000006
S       -6.32042000      12.77220157       9.75777800        1        4      -0.92578603       0.00000000       0.00000000       0.00000007
Mo       3.16021000       0.00000000       2.00000000        0        0      -1.86256402      -0.00000000       0.00000000      -0.00000007
S       -4.74031500      15.50902371       0.41407400        1        2      -0.92578603      -0.00000000       0.00000000      -0.00000007
S       -4.74031500      15.50902371       3.58592600        1        1      -0.99150246       0.00000000      -0.00000000      -0.00000006
Mo       3.16021000       0.00000000       8.17185200        0        3      -1.86256402      -0.00000000       0.00000000       0.00000007
S       -4.74031500      15.50902371       6.58592600        1        5      -0.99150246      -0.00000000      -0.00000000       0.00000006
S       -4.74031500      15.50902371       9.75777800        1        4      -0.92578603       0.00000000       0.00000000       0.00000007
Mo       1.58010500       2.73682214       2.00000000        0        0      -1.86256402      -0.00000000       0.00000000      -0.00000007
S        3.16021000       1.82491300       0.41407400        1        2      -0.92578603      -0.00000000      -0.00000000      -0.00000007
S        3.16021000       1.82491300       3.58592600        1        1      -0.99150246       0.00000000       0.00000000      -0.00000006
Mo       1.58010500       2.73682214       8.17185200        0        3      -1.86256402      -0.00000000       0.00000000       0.00000007
S        3.16021000       1.82491300       6.58592600        1        5      -0.99150246      -0.00000000       0.00000000       0.00000006
S        3.16021000       1.82491300       9.75777800        1        4      -0.92578603       0.00000000      -0.00000000       0.00000007
Mo       0.00000000       5.47364428       2.00000000        0        0      -1.86256402      -0.00000000       0.00000000      -0.00000007
S        1.58010500       4.56173514       0.41407400        1        2      -0.92578603       0.00000000      -0.00000000      -0.00000007
S        1.58010500       4.56173514       3.58592600        1        1      -0.99150246      -0.00000000       0.00000000      -0.00000006
Mo       0.00000000       5.47364428       8.17185200        0        3      -1.86256402      -0.00000000       0.00000000       0.00000007
S        1.58010500       4.56173514       6.58592600        1        5      -0.99150246      -0.00000000       0.00000000       0.00000006
S        1.58010500       4.56173514       9.75777800        1        4      -0.92578603       0.00000000      -0.00000000       0.00000007
Mo      -1.58010500       8.21046642       2.00000000        0        0      -1.86256402      -0.00000000      -0.00000000      -0.00000007
S        0.00000000       7.29855728       0.41407400        1        2      -0.92578603      -0.00000000      -0.00000000      -0.00000007
S        0.00000000       7.29855728       3.58592600        1        1      -0.99150246       0.00000000       0.00000000      -0.00000006
Mo      -1.58010500       8.21046642       8.17185200        0        3      -1.86256402      -0.00000000      -0.00000000       0.00000007
S        0.00000000       7.29855728       6.58592600        1        5      -0.99150246      -0.00000000       0.00000000       0.00000006
S        0.00000000       7.29855728       9.75777800        1        4      -0.92578603       0.00000000      -0.00000000       0.00000007
Mo      -3.16021000      10.94728857       2.00000000        0        0      -1.86256402       0.00000000      -0.00000000      -0.00000007
S       -1.58010500      10.03537943       0.41407400        1        2      -0.92578603      -0.00000000       0.00000000      -0.00000007
S       -1.58010500      10.03537943       3.58592600        1        1      -0.99150246       0.00000000      -0.00000000      -0.00000006
Mo      -3.16021000      10.94728857       8.17185200        0        3      -1.86256402       0.00000000      -0.00000000       0.00000007
S       -1.58010500      10.03537943       6.58592600        1        5      -0.99150246       0.00000000      -0.00000000       0.00000006
S       -1.58010500      10.03537943       9.75777800        1        4      -0.92578603      -0.00000000       0.00000000       0.00000007
Mo      -4.74031500      13.68411071       2.00000000        0        0      -1.86256402       0.00000000      -0.00000000      -0.00000007
S       -3.16021000      12.77220157       0.41407400        1        2      -0.92578603      -0.00000000       0.00000000      -0.00000007
S       -3.16021000      12.77220157       3.58592600        1        1      -0.99150246       0.00000000      -0.00000000      -0.00000006
Mo      -4.74031500      13.68411071       8.17185200        0        3      -1.86256402      -0.00000000      -0.00000000       0.00000007
S       -3.16021000      12.77220157       6.58592600        1        5      -0.99150246       0.00000000      -0.00000000       0.00000006
S       -3.16021000      12.77220157       9.75777800        1        4      -0.92578603      -0.00000000       0.00000000       0.00000007
Mo       6.32042000       0.00000000       2.00000000        0        0      -1.86256402       0.00000000       0.00000000      -0.00000007
S       -1.58010500      15.50902371       0.41407400        1        2      -0.92578603      -0.00000000       0.00000000      -0.00000007
S       -1.58010500      15.50902371       3.58592600        1        1      -0.99150246       0.00000000      -0.00000000      -0.00000006
Mo       6.32042000       0.00000000       8.17185200        0        3      -1.86256402       0.00000000      -0.00000000       0.00000007
S       -1.58010500      15.50902371       6.58592600        1        5      -0.99150246       0.00000000      -0.00000000       0.00000006
S       -1.58010500      15.50902371       9.75777800        1        4      -0.92578603      -0.00000000       0.00000000       0.00000007
Mo       4.74031500       2.73682214       2.00000000        0        0      -1.86256402      -0.00000000       0.00000000      -0.00000007
S        6.32042000       1.82491300       0.41407400        1        2      -0.92578603      -0.00000000      -0.00000000      -0.00000007
S        6.32042000       1.82491300       3.58592600        1        1      -0.99150246       0.00000000       0.00000000      -0.00000006
Mo       4.74031500       2.73682214       8.17185200        0        3      -1.86256402      -0.00000000       0.00000000       0.00000007
S        6.32042000       1.82491300       6.58592600        1        5      -0.99150246      -0.00000000       0.00000000       0.00000006
S        6.32042000       1.82491300       9.75777800        1        4      -0.92578603       0.00000000      -0.00000000       0.00000007
Mo       3.16021000       5.47364428       2.00000000        0        0      -1.86256402      -0.00000000       0.00000000      -0.00000007
S        4.74031500       4.56173514       0.41407400        1        2      -0.92578603      -0.00000000      -0.00000000      -0.00000007
S        4.74031500       4.56173514       3.58592600        1        1      -0.99150246       0.00000000       0.00000000      -0.00000006
Mo       3.16021000       5.47364428       8.17185200        0        3      -1.86256402      -0.00000000       0.00000000       0.00000007
S        4.74031500       4.56173514       6.58592600        1        5      -0.99150246      -0.00000000       0.00000000       0.00000006
S        4.74031500       4.56173514       9.75777800        1        4      -0.92578603       0.00000000      -0.00000000       0.00000007
Mo       1.58010500       8.21046642       2.00000000        0        0      -1.86256402      -0.00000000       0.00000000      -0.00000007
S        3.16021000       7.29855728       0.41407400        1        2      -0.92578603       0.00000000      -0.00000000      -0.00000007
S        3.16021000       7.29855728       3.58592600        1        1      -0.99150246       0.00000000       0.00000000      -0.00000006
Mo       1.58010500       8.21046642       8.17185200        0        3      -1.86256402      -0.00000000      -0.00000000       0.00000007
S        3.16021000       7.29855728       6.58592600        1        5      -0.99150246      -0.00000000       0.00000000       0.00000006
S        3.16021000       7.29855728       9.75777800        1        4      -0.92578603       0.00000000      -0.00000000       0.00000007
Mo       0.00000000      10.94728857       2.00000000        0        0      -1.86256402       0.00000000      -0.00000000      -0.00000007
S        1.58010500      10.03537943       0.41407400        1        2      -0.92578603      -0.00000000       0.00000000      -0.00000007
S        1.58010500      10.03537943       3.58592600        1        1      -0.99150246       0.00000000      -0.00000000      -0.00000006
Mo       0.00000000      10.94728857       8.17185200        0        3      -1.86256402      -0.00000000      -0.00000000       0.00000007
S        1.58010500      10.03537943       6.58592600        1        5      -0.99150246      -0.00000000      -0.00000000       0.00000006
S        1.58010500      10.03537943       9.75777800        1        4      -0.92578603       0.00000000       0.00000000       0.00000007
Mo      -1.58010500      13.68411071       2.00000000        0        0      -1.86256402       0.00000000      -0.00000000      -0.00000007
S        0.00000000      12.77220157       0.41407400        1        2      -0.92578603      -0.00000000       0.00000000      -0.00000007
S        0.00000000      12.77220157       3.58592600        1        1      -0.99150246       0.00000000      -0.00000000      -0.00000006
Mo      -1.58010500      13.68411071       8.17185200        0        3      -1.86256402       0.00000000      -0.00000000       0.00000007
S        0.00000000      12.77220157       6.58592600        1        5      -0.99150246       0.00000000      -0.00000000       0.00000006
S        0.00000000      12.77220157       9.75777800        1        4      -0.92578603      -0.00000000       0.00000000       0.00000007
Mo       9.48063000       0.00000000       2.00000000        0        0      -1.86256402       0.00000000       0.00000000      -0.00000007
S        1.58010500      15.50902371       0.41407400        1        2      -0.92578603      -0.00000000       0.00000000      -0.00000007
S        1.58010500      15.50902371       3.58592600        1        1      -0.99150246       0.00000000      -0.00000000      -0.00000006
Mo       9.48063000       0.00000000       8.17185200        0        3      -1.86256402       0.00000000      -0.00000000       0.00000007
S        1.58010500      15.50902371       6.58592600        1        5      -0.99150246       0.00000000      -0.00000000       0.00000006
S        1.58010500      15.50902371       9.75777800        1        4      -0.92578603      -0.00000000       0.00000000       0.00000007
Mo       7.90052500       2.73682214       2.00000000        0        0      -1.86256402      -0.00000000       0.00000000      -0.00000007
S        9.48063000       1.82491300       0.41407400        1        2      -0.92578603      -0.00000000      -0.00000000      -0.00000007
S        9.48063000       1.82491300       3.58592600        1        1      -0.99150246       0.00000000       0.00000000      -0.00000006
Mo       7.90052500       2.73682214       8.17185200        0        3      -1.86256402       0.00000000       0.00000000       0.00000007
S        9.48063000       1.82491300       6.58592600        1        5      -0.99150246       0.00000000      -0.00000000       0.00000006
S        9.48063000       1.82491300       9.75777800        1        4      -0.92578603      -0.00000000       0.00000000       0.00000007
Mo       6.32042000       5.47364428       2.00000000        0        0      -1.86256402      -0.00000000       0.00000000      -0.00000007
S        7.90052500       4.56173514       0.41407400        1        2      -0.92578603      -0.00000000      -0.00000000      -0.00000007
S        7.90052500       4.56173514       3.58592600        1        1      -0.99150246       0.00000000       0.00000000      -0.00000006
Mo       6.32042000       5.47364428       8.17185200        0        3      -1.86256402      -0.00000000       0.00000000       0.00000007
S        7.90052500       4.56173514       6.58592600        1        5      -0.99150246      -0.00000000       0.00000000       0.00000006
S        7.90052500       4.56173514       9.75777800        1        4      -0.92578603       0.00000000      -0.00000000       0.00000007
Mo       4.74031500       8.21046642       2.00000000        0        0      -1.86256402      -0.00000000       0.00000000      -0.00000007
S        6.32042000       7.29855728       0.41407400        1        2      -0.92578603       0.00000000      -0.00000000      -0.00000007
S        6.32042000       7.29855728       3.58592600        1        1      -0.99150246      -0.00000000       0.00000000      -0.00000006
Mo       4.74031500       8.21046642       8.17185200        0        3      -1.86256402      -0.00000000       0.00000000       0.00000007
S        6.32042000       7.29855728       6.58592600        1        5      -0.99150246      -0.00000000       0.00000000       0.00000006
S        6.32042000       7.29855728       9.75777800        1        4      -0.92578603       0.00000000      -0.00000000       0.00000007
Mo       3.16021000      10.94728857       2.00000000        0        0      -1.86256402      -0.00000000      -0.00000000      -0.00000007
S        4.74031500      10.03537943       0.41407400        1        2      -0.92578603       0.00000000       0.00000000      -0.00000007
S        4.74031500      10.03537943       3.58592600        1        1      -0.99150246      -0.00000000      -0.00000000      -0.00000006
Mo       3.16021000      10.94728857       8.17185200        0        3      -1.86256402      -0.00000000      -0.00000000       0.00000007
S        4.74031500      10.03537943       6.58592600        1        5      -0.99150246      -0.00000000       0.00000000       0.00000006
S        4.74031500      10.03537943       9.75777800        1        4      -0.92578603       0.00000000      -0.00000000       0.00000007
Mo       1.58010500      13.68411071       2.00000000        0        0      -1.86256402      -0.00000000      -0.00000000      -0.00000007
S        3.16021000      12.77220157       0.41407400        1        2      -0.92578603       0.00000000       0.00000000      -0.00000007
S        3.16021000      12.77220157       3.58592600        1        1      -0.99150246      -0.00000000      -0.00000000      -0.00000006
Mo       1.58010500      13.68411071       8.17185200        0        3      -1.86256402       0.00000000      -0.00000000       0.00000007
S        3.16021000      12.77220157       6.58592600        1        5      -0.99150246       0.00000000      -0.00000000       0.00000006
S        3.16021000      12.77220157       9.75777800        1        4      -0.92578603      -0.00000000       0.00000000       0.00000007
Mo      12.64084000       0.00000000       2.00000000        0        0      -1.86256402       0.00000000       0.00000000      -0.00000007
S        4.74031500      15.50902371       0.41407400        1        2      -0.92578603       0.00000000       0.00000000      -0.00000007
S        4.74031500      15.50902371       3.58592600        1        1      -0.99150246      -0.00000000      -0.00000000      -0.00000006
Mo      12.64084000       0.00000000       8.17185200        0        3      -1.86256402       0.00000000       0.00000000       0.00000007
S        4.74031500      15.50902371       6.58592600        1        5      -0.99150246       0.00000000      -0.00000000       0.00000006
S        4.74031500      15.50902371       9.75777800        1        4      -0.92578603      -0.00000000       0.00000000       0.00000007
Mo      11.06073500       2.73682214       2.00000000        0        0      -1.86256402       0.00000000       0.00000000      -0.00000007
S       12.64084000       1.82491300       0.41407400        1        2      -0.92578603       0.00000000      -0.00000000      -0.00000007
S       12.64084000       1.82491300       3.58592600        1        1      -0.99150246      -0.00000000       0.00000000      -0.00000006
Mo      11.06073500       2.73682214       8.17185200        0        3      -1.86256402       0.00000000       0.00000000       0.00000007
S       12.64084000       1.82491300       6.58592600        1        5      -0.99150246       0.00000000       0.00000000       0.00000006
S       12.64084000       1.82491300       9.75777800        1        4      -0.92578603      -0.00000000      -0.00000000       0.00000007
Mo       9.48063000       5.47364428       2.00000000        0        0      -1.86256402       0.00000000       0.00000000      -0.00000007
S       11.06073500       4.56173514       0.41407400        1        2      -0.92578603      -0.00000000      -0.00000000      -0.00000007
S       11.06073500       4.56173514       3.58592600        1        1      -0.99150246       0.00000000       0.00000000      -0.00000006
Mo       9.48063000       5.47364428       8.17185200        0        3      -1.86256402       0.00000000       0.00000000       0.00000007
S       11.06073500       4.56173514       6.58592600        1        5      -0.99150246       0.00000000       0.00000000       0.00000006
S       11.06073500       4.56173514       9.75777800        1        4      -0.92578603      -0.00000000      -0.00000000       0.00000007
Mo       7.90052500       8.21046642       2.00000000        0        0      -1.86256402      -0.00000000       0.00000000      -0.00000007
S        9.48063000       7.29855728       0.41407400        1        2      -0.92578603       0.00000000      -0.00000000      -0.00000007
S        9.48063000       7.29855728       3.58592600        1        1      -0.99150246      -0.00000000       0.00000000      -0.00000006
Mo       7.90052500       8.21046642       8.17185200        0        3      -1.86256402      -0.00000000       0.00000000       0.00000007
S        9.48063000       7.29855728       6.58592600        1        5      -0.99150246       0.00000000       0.00000000       0.00000006
S        9.48063000       7.29855728       9.75777800        1        4      -0.92578603      -0.00000000      -0.00000000       0.00000007
Mo       6.32042000      10.94728857       2.00000000        0        0      -1.86256402      -0.00000000      -0.00000000      -0.00000007
S        7.90052500      10.03537943       0.41407400        1        2      -0.92578603       0.00000000       0.00000000      -0.00000007
S        7.90052500      10.03537943       3.58592600        1        1      -0.99150246      -0.00000000      -0.00000000      -0.00000006
Mo       6.32042000      10.94728857       8.17185200        0        3      -1.86256402      -0.00000000      -0.00000000       0.00000007
S        7.90052500      10.03537943       6.58592600        1        5      -0.99150246      -0.00000000       0.00000000       0.00000006
S        7.90052500      10.03537943       9.75777800        1        4      -0.92578603       0.00000000      -0.00000000       0.00000007
Mo       4.74031500      13.68411071       2.00000000        0        0      -1.86256402      -0.00000000      -0.00000000      -0.00000007
S        6.32042000      12.77220157       0.41407400        1        2      -0.92578603       0.00000000       0.00000000      -0.00000007
S        6.32042000      12.77220157       3.58592600        1        1      -0.99150246      -0.00000000      -0.00000000      -0.00000006
Mo       4.74031500      13.68411071       8.17185200        0        3      -1.86256402      -0.00000000      -0.00000000       0.00000007
S        6.32042000      12.77220157       6.58592600        1        5      -0.99150246      -0.00000000      -0.00000000       0.00000006
S        6.32042000      12.77220157       9.75777800        1        4      -0.92578603       0.00000000       0.00000000       0.00000007
Mo      15.80105000       0.00000000       2.00000000        0        0      -1.86256402      -0.00000000       0.00000000      -0.00000007
S        7.90052500      15.50902371       0.41407400        1        2      -0.92578603       0.00000000       0.00000000      -0.00000007
S        7.90052500      15.50902371       3.58592600        1        1      -0.99150246      -0.00000000      -0.00000000      -0.00000006
Mo      15.80105000       0.00000000       8.17185200        0        3      -1.86256402      -0.00000000       0.00000000       0.00000007
S        7.90052500      15.50902371       6.58592600        1        5      -0.99150246      -0.00000000      -0.00000000       0.00000006
S        7.90052500      15.50902371       9.75777800        1        4      -0.92578603       0.00000000       0.00000000       0.00000007
Mo      14.22094500       2.73682214       2.00000000        0        0      -1.86256402      -0.00000000       0.00000000      -0.00000007
S       15.80105000       1.82491300       0.41407400        1        2      -0.92578603       0.00000000      -0.00000000      -0.00000007
S       15.80105000       1.82491300       3.58592600        1        1      -0.99150246      -0.00000000       0.00000000      -0.00000006
Mo      14.22094500       2.73682214       8.17185200        0        3      -1.86256402      -0.00000000       0.00000000       0.00000007
S       15.80105000       1.82491300       6.58592600        1        5      -0.99150246       0.00000000       0.00000000       0.00000006
S       15.80105000       1.82491300       9.75777800        1        4      -0.92578603      -0.00000000      -0.00000000       0.00000007
Mo      12.64084000       5.47364428       2.00000000        0        0      -1.86256402       0.00000000       0.00000000      -0.00000007
S       14.22094500       4.56173514       0.41407400        1        2      -0.92578603       0.00000000      -0.00000000      -0.00000007
S       14.22094500       4.56173514       3.58592600        1        1      -0.99150246      -0.00000000       0.00000000      -0.00000006
Mo      12.64084000       5.47364428       8.17185200        0        3      -1.86256402       0.00000000       0.00000000       0.00000007
S       14.22094500       4.56173514       6.58592600        1        5      -0.99150246       0.00000000       0.00000000       0.00000006
S       14.22094500       4.56173514       9.75777800        1        4      -0.92578603      -0.00000000      -0.00000000       0.00000007
Mo      11.06073500       8.21046642       2.00000000        0        0      -1.86256402      -0.00000000      -0.00000000      -0.00000007
S       12.64084000       7.29855728       0.41407400        1        2      -0.92578603       0.00000000      -0.00000000      -0.00000007
S       12.64084000       7.29855728       3.58592600        1        1      -0.99150246      -0.00000000       0.00000000      -0.00000006
Mo      11.06073500       8.21046642       8.17185200        0        3      -1.86256402       0.00000000       0.00000000       0.00000007
S       12.64084000       7.29855728       6.58592600        1        5      -0.99150246       0.00000000       0.00000000       0.00000006
S       12.64084000       7.29855728       9.75777800        1        4      -0.92578603      -0.00000000      -0.00000000       0.00000007
Mo       9.48063000      10.94728857       2.00000000        0        0      -1.86256402      -0.00000000      -0.00000000      -0.00000007
S       11.06073500      10.03537943       0.41407400        1        2      -0.92578603       0.00000000       0.00000000      -0.00000007
S       11.06073500      10.03537943       3.58592600        1        1      -0.99150246      -0.00000000      -0.00000000      -0.00000006
Mo       9.48063000      10.94728857       8.17185200        0        3      -1.86256402      -0.00000000      -0.00000000       0.00000007
S       11.06073500      10.03537943       6.58592600        1        5      -0.99150246       0.00000000       0.00000000       0.00000006
S       11.06073500      10.03537943       9.75777800        1        4      -0.92578603      -0.00000000      -0.00000000       0.00000007