LAMMPS data file via write_data, version 27 Jun 2024, timestep = 4000, units = metal

540 atoms
6 atom types

0 37.59365801343109 xlo xhi
0 21.52779524830364 ylo yhi
-0.5914324021884234 10.146068237051622 zlo zhi
-27.49615054720427 0 0 xy xz yz

Masses

1 95.95
2 32.06
3 32.06
4 95.95
5 78.971
6 78.971

Atoms # atomic

283 5 -12.15661097701134 10.06513220203918 6.569663880094367 0 0 0
284 6 -12.31438190218155 10.040177973503948 9.910447154236667 0 0 0
17 1 -9.662761206187229 8.475429688715394 1.8865705395920775 0 0 0
18 2 -8.058405800837411 7.884581935956428 0.18938169329404417 0 0 0
14 1 -7.3083480012909785 6.306041012323862 1.8050136901157625 0 0 0
12 2 -3.4805823332281043 3.6420867244518393 -0.008379790155026535 0 0 0
13 3 -3.6674735673687104 3.250125805149445 2.9200277560435177 0 0 0
15 2 -5.831700055268371 5.757772520786063 0.08961053506881299 0 0 0
16 3 -5.588762492779117 5.776007750402519 3.2792031676860476 0 0 0
40 1 -2.180848086351611 4.881189253667975 1.4753664631259693 0 0 0
44 2 -2.6998943982565033 6.66502489782962 0.09544651271934387 0 0 0
45 3 -2.6626723084508463 6.577925670368957 3.080418726042197 0 0 0
307 4 -8.48196112225498 9.027083991681105 8.36444291869596 0 0 0
308 5 -6.789651838949252 8.53051382400974 6.642295788946273 0 0 0
309 6 -6.612465449712571 8.747395706658702 10.013416313894835 0 0 0
310 4 -10.918176560421474 11.28926329068072 8.294806948228446 0 0 0
311 5 -8.970913114017272 10.951453549483452 6.6387927686125625 0 0 0
312 6 -9.092259764893956 10.683149404133644 10.035004773321859 0 0 0
304 4 -6.147693480561874 6.817847961037902 8.433180556374 0 0 0
19 3 -7.883525039560394 7.96573921592606 3.3633924243789064 0 0 0
43 1 -4.440848724081691 7.075314476614382 1.6465736949562053 0 0 0
337 4 -5.488762006092177 10.041277463554747 8.287575894099094 0 0 0
47 2 -4.830442932147322 9.019125122392847 0.1951949435407295 0 0 0
48 3 -4.688203099831513 8.836496543464662 3.2713032409277494 0 0 0
305 5 -4.560868459037445 6.474217436103244 6.536897182601153 0 0 0
306 6 -4.149972413772185 6.247824909559005 9.819674019551398 0 0 0
46 1 -6.500439408917407 9.30196890601628 1.8855011905268493 0 0 0
71 1 -1.2454685413828406 7.857966572143328 1.4842563119695638 0 0 0
10 3 -1.3578507992473983 1.0987784604795543 2.818300642943612 0 0 0
37 1 -0.2059074703868963 2.3635610532517926 1.2423235077291717 0 0 0
41 2 -0.6554989431402609 4.240379198308786 -0.13913640082651096 0 0 0
42 3 -0.6501814998667388 4.117520177505885 3.0267657214878305 0 0 0
68 1 0.8372567069407072 5.307297983846696 1.4579305114094987 0 0 0
34 1 1.744090231077014 0.2576401080816373 1.1774631506031108 0 0 0
35 2 -24.281010625176478 21.17608370987585 -0.5295485723509941 0 -1 0
36 3 -24.110448661154695 21.274215951427333 2.6737102460298114 0 -1 0
38 2 1.3520295112357255 1.9043051515559228 -0.4835002795284896 0 0 0
39 3 1.6066542777307087 2.0088424368128157 2.874888157453574 0 0 0
62 1 4.900828711411561 0.8373357339273249 0.9727851419899801 0 0 0
65 1 2.8453318898980293 3.158540620589814 1.2835152509980814 0 0 0
66 2 4.487731328922638 2.6860592213915324 -0.34781932871434057 0 0 0
67 3 4.598941403412352 2.4046884167739515 2.6974328328641706 0 0 0
69 2 2.4671926099877015 4.938932313845091 -0.28678007976980857 0 0 0
70 3 2.6101256956453405 4.9828816528666815 2.8124334226887573 0 0 0
95 1 5.989676272659918 3.8371753045445818 1.1718880893346286 0 0 0
98 1 3.8677390415203474 6.2714693665292245 1.3872115392101034 0 0 0
99 2 5.668293752795701 5.7827333401188525 -0.33770921770876255 0 0 0
100 3 5.727529400180215 5.948718238036199 2.9274917039499826 0 0 0
301 4 -3.8424479087492296 4.613943038221382 8.119420450769221 0 0 0
302 5 -2.2101029862768566 4.313422465638212 6.230543511305335 0 0 0
303 6 -1.8632592679697615 4.095313822843345 9.62758298276409 0 0 0
328 4 1.7876426975856572 3.417480196869137 7.743056486261518 0 0 0
331 4 -0.8028710722253403 5.612602934792969 7.988100614131467 0 0 0
332 5 0.9368647726417585 5.367072335955136 6.230467823043585 0 0 0
333 6 1.2369910646410898 5.089301453829749 9.407106695234988 0 0 0
334 4 -3.1187141746626104 7.761819272717806 8.13652251655121 0 0 0
335 5 -1.3892473647537271 7.345074816238626 6.32137922126464 0 0 0
336 6 -1.1153376737702725 7.435644566884886 9.61288998655092 0 0 0
338 5 -3.6900564702958474 9.707006590987879 6.619675167488846 0 0 0
339 6 -3.616174716160305 9.553792716198695 9.843272603505255 0 0 0
364 4 0.002076914347016298 8.70331722752934 7.881396181957352 0 0 0
365 5 1.767096862232132 8.526511603602069 6.127977954158975 0 0 0
366 6 1.7519674594002264 8.342230085040507 9.49797723131124 0 0 0
367 4 -2.3868170771916075 11.010111110580548 8.074548937035095 0 0 0
368 5 -0.5816137077442054 10.533139811889587 6.251135165246241 0 0 0
369 6 -0.3991726930152923 10.642932315868562 9.6012050335285 0 0 0
398 5 2.337306999795755 11.804691695013325 5.967408692834095 0 0 0
298 4 -1.3268754539222898 2.3607660087916558 7.680950278634282 0 1 0
299 5 0.5356126291565703 2.140055456598288 6.030619848628475 0 1 0
300 6 0.5030472774439667 1.944074551052712 9.275476157523151 0 1 0
72 2 0.5326282470356603 7.148896006549079 0.02855447370349741 0 0 0
73 3 0.5105523759390264 7.081225861131955 2.9783254113023254 0 0 0
102 2 3.545814336109475 8.111337080970495 -0.11382235619538655 0 0 0
103 3 3.482153827610607 7.940210661737993 2.9721399617562607 0 0 0
361 4 2.3898866504372203 6.53446463512919 7.849798402562797 0 0 0
394 4 2.9992969508281 9.83753575444374 7.693406922609051 0 0 0
101 1 1.8222539043307802 8.30883729000948 1.6131823262147396 0 0 0
329 5 3.418248280011402 2.981417997321153 5.97329778754948 0 0 0
330 6 3.561381906269403 2.7481942056218465 9.397603211083597 0 0 0
363 6 4.3811712442392325 6.059778594121146 9.554083734364832 0 0 0
325 4 4.1090611506639085 1.0980160913684076 7.6747314507888005 0 1 0
75 2 -1.6985374514553226 9.600491167121842 -0.1564325854210999 0 0 0
76 3 -1.6188579266981356 9.41825324895433 3.280463844999991 0 0 0
131 1 4.949569487021792 9.195720701550615 1.4468053920322996 0 0 0
63 2 7.166747139783195 0.0023442542558777687 -0.5041927438162878 0 0 0
64 3 6.662648139483972 0.2325907168081243 2.5490084106484945 0 0 0
132 2 6.564697394468361 8.817796454841126 -0.2840185528526526 0 0 0
133 3 6.77700435478379 8.670391750520364 2.908358069561678 0 0 0
92 1 8.345479268662098 1.2362559144022733 1.008282518308046 0 0 0
96 2 7.671014352325855 3.0906087788317196 -0.43115739545442816 0 0 0
97 3 7.7554716194954665 2.997392950354822 2.852151236889473 0 0 0
128 1 7.163214542219277 6.982123059544381 1.2606130489578482 0 0 0
125 1 8.981228907099664 4.309612075975667 1.3215043641190072 0 0 0
129 2 8.589443968161534 6.003444579447692 -0.2735049833546655 0 0 0
130 3 8.624397325594979 6.115233793670443 2.980759510900552 0 0 0
89 1 -17.0007705529541 20.532762591535786 1.1403852669106738 0 -1 0
93 2 10.000170102409314 0.6010163588650393 -0.5083349761837289 0 0 0
94 3 9.897982943827381 0.5926178195118265 2.605616607961791 0 0 0
119 1 -13.946287992379087 21.23652995167757 1.341841053539355 0 -1 0
122 1 11.397159709376755 1.9101321336867472 1.2182216093448646 0 0 0
123 2 13.244069107415745 1.5649906645165343 -0.1394244028106026 0 0 0
124 3 13.06285824702723 1.3496416112826655 2.8054589281217908 0 0 0
126 2 10.955019170863146 3.993164137156829 -0.2525637682536508 0 0 0
127 3 10.844201155952767 3.7232449627040896 2.926684348649289 0 0 0
152 1 12.222338830298597 5.130463818889682 1.4935304997558632 0 0 0
153 2 14.102145853432587 4.542270756659073 0.06793946443671521 0 0 0
154 3 13.797707946367503 4.55405045107322 3.16642169230355 0 0 0
358 4 4.874930372145631 4.196760967709971 7.716945038250569 0 0 0
359 5 6.681503898053155 3.6359111079766424 6.059421286484313 0 0 0
360 6 6.8174949803284175 3.867219011792131 9.413859718244748 0 0 0
362 5 4.095435733026777 6.071325904615224 6.038998151901903 0 0 0
388 4 7.877673928406862 5.258392116601674 7.68389711642369 0 0 0
389 5 9.574382036671919 4.873674482557391 6.1531593179869235 0 0 0
390 6 9.782905793163238 4.751617295102763 9.448471038375557 0 0 0
391 4 5.441874681712178 7.648672110017134 7.644084598962157 0 0 0
392 5 7.362061632287379 6.967077748284284 6.057732519743732 0 0 0
393 6 7.1069072559279105 7.271730868069689 9.406208148835827 0 0 0
395 5 4.894969414233339 9.545177880967719 6.0782968437190865 0 0 0
396 6 4.844690841210959 9.465997492582723 9.294772274731713 0 0 0
421 4 8.519460089175114 8.491434204586822 7.623898190893757 0 0 0
424 4 6.265397711990167 10.889820887739289 7.590356797379057 0 0 0
425 5 8.06094374455377 10.356985677544163 5.744649222464645 0 0 0
426 6 7.9199803214400895 10.572181048937187 9.145229519876125 0 0 0
387 4 10.304532564887017 2.908303224187214 7.925975695431364 0 0 0
422 5 10.61848109768334 8.031356186918764 6.0893271896926855 0 0 0
423 6 10.415162196366172 8.07219687161474 9.278181804126428 0 0 0
355 4 7.219159036227415 1.9976603967920359 7.835953207979725 0 1 0
155 1 10.120483395393087 7.283760082533594 1.2810365390291156 0 0 0
156 2 11.927862355400213 6.827550617914138 -0.029562197508463967 0 0 0
157 3 11.630929958131187 6.622022972555038 3.232449511508737 0 0 0
185 1 13.199889898672396 8.149935467324811 1.9421990866116718 0 0 0
418 4 11.062896976004746 6.086685187526198 7.791785396662558 0 0 0
451 4 11.804662762340078 9.51119713670857 7.770190821870751 0 0 0
455 5 11.174940970535447 11.546469862761873 6.065400287356414 0 0 0
356 5 9.168880225286369 1.5084563787643641 6.281306516835556 0 1 0
357 6 9.059787999019909 1.5534241873757193 9.542271206801555 0 1 0
385 5 12.092315476967604 2.5731964115742914 6.153034851183898 0 1 0
386 6 12.334983461913174 2.7094528269859173 9.560892384361573 0 1 0
326 5 5.937807697083359 0.5194014531883391 5.9081820176557605 0 1 0
158 1 8.058822794751855 9.960566845318455 1.356442645924465 0 0 0
159 2 9.616180396305351 9.37308996376123 -0.20800265185642747 0 0 0
160 3 9.571580825239296 8.992152512645113 3.0340368323793703 0 0 0
120 2 -11.949438082492561 20.808004808838838 -0.0065104511486492 0 -1 0
121 3 -12.428313476289823 20.655389852720646 3.1841378129722377 0 -1 0
149 1 14.454135463419682 2.82923176404786 1.547453926655436 0 0 0
186 2 14.97981930216087 7.399364988273188 0.08897377717897563 0 0 0
187 3 14.933430535367254 7.518050784912881 3.4062399503359826 0 0 0
146 1 16.750143170875752 0.41341637447287244 1.7730126202998737 0 0 0
150 2 16.413007353204936 2.3427199472225655 0.33881626347228466 0 0 0
151 3 16.072949374552852 2.176207055199703 3.285824404810578 0 0 0
182 1 15.321814592544301 5.88018002725075 1.6792411869760524 0 0 0
179 1 17.57604958472077 3.6378702925595765 1.877800719174276 0 0 0
183 2 17.1503009341049 5.339379820172136 0.17732299012982047 0 0 0
184 3 16.856088131462606 5.610990077994518 3.4129084827560714 0 0 0
147 2 18.450977462999173 0.021360592164813137 0.40078661765948287 0 0 0
148 3 -8.973948190743048 21.50598574628519 3.4114882672249998 0 -1 0
176 1 19.86432534426454 1.3139431611329104 1.7670759592881342 0 0 0
177 2 21.625656161434097 0.7516175698327019 0.3025603168992136 0 0 0
178 3 21.55804427352409 0.5116097607084933 3.3754276792485283 0 0 0
180 2 19.382713872569745 2.882831239027068 0.21755678035882053 0 0 0
181 3 19.497800022519804 2.9768248700550712 3.27141797435789 0 0 0
209 1 20.617607594639924 4.305965364275359 1.818541261002296 0 0 0
212 1 18.45323848170039 6.495522584308772 1.8312530500705586 0 0 0
213 2 20.26752650142954 5.908757729317611 0.31577830041687066 0 0 0
214 3 20.077258816541466 6.035432165407476 3.416907902125721 0 0 0
415 4 13.508713042335312 4.031206871533155 7.847434451073984 0 0 0
416 5 15.320029326058142 3.6034001860583165 6.230192646281917 0 0 0
417 6 15.486746342523357 3.7358362957155 9.546879355647944 0 0 0
419 5 13.002242320732867 5.776629153386032 6.104575352804153 0 0 0
420 6 13.013155120438483 5.877787574602594 9.423807574921288 0 0 0
445 4 16.67287120940242 5.0228139230425155 7.836185325276594 0 0 0
448 4 14.348041123097836 7.253549094202358 7.712831809129809 0 0 0
449 5 16.233790231102255 6.998200171373375 6.175737395051156 0 0 0
450 6 15.954215003102037 6.759935942435835 9.40280649520873 0 0 0
452 5 13.704690837099921 9.206745800315604 6.109232435077633 0 0 0
453 6 13.707368396924856 9.01979449753739 9.515518798707035 0 0 0
478 4 17.40635167925552 8.318268516172653 7.902210202372726 0 0 0
481 4 14.908684204083112 10.545797553882087 7.835140918507695 0 0 0
482 5 16.8218239047447 10.210327307834193 6.244291497476014 0 0 0
483 6 16.711329320772776 10.111593287847393 9.628698087259744 0 0 0
446 5 18.52659326604267 4.5381289023388565 6.390171308301239 0 0 0
447 6 18.341898350090936 4.55271063567319 9.681720400501447 0 0 0
412 4 16.024807869572044 1.7521896335302656 7.90706564869281 0 1 0
241 1 21.63937151496169 7.174044596756907 1.8426836654266718 0 0 0
444 4 19.093257527695293 2.7565018433027904 8.053927789788627 0 0 0
475 4 19.741070108719352 6.053411645511042 8.08981797939877 0 0 0
479 5 19.200871788747218 7.815457804505994 6.380542062036219 0 0 0
480 6 19.18318782692593 7.984813289067929 9.662992006777198 0 0 0
512 5 19.952704265568418 11.084391728662203 6.319708325030271 0 0 0
513 6 19.75725799263398 11.216346622434882 9.700709638903088 0 0 0
413 5 17.87397706139109 1.1548897043113995 6.405921113689616 0 1 0
414 6 17.833477662311463 1.5767879223357277 9.755423985609756 0 1 0
215 1 16.37660940088015 8.825961664295512 1.6835484365620985 0 0 0
216 2 18.10477000738156 8.382752626461947 0.21683476122475484 0 0 0
217 3 18.251495960498698 8.401571823767432 3.318935826707736 0 0 0
245 2 21.151377315862156 8.996204195966566 0.09643722414522367 0 0 0
246 3 21.156648071261525 9.094284667091777 3.273617058268565 0 0 0
508 4 20.427791856348264 9.41595459384685 8.086926941870141 0 0 0
382 4 12.93992291972312 0.80190474656255 7.988206768546884 0 1 0
244 1 19.540657774050963 9.649031810563777 1.5910879306932812 0 0 0
206 1 22.88818625176615 1.911844845843972 1.887494632408594 0 0 0
210 2 22.51071054615604 3.8336062503719575 0.404206686078587 0 0 0
211 3 22.287455519771576 3.4977020188476553 3.3913195568197034 0 0 0
242 2 23.47861036824089 6.541044936019035 0.5178757697049278 0 0 0
536 5 -9.695948073401857 7.686513171192645 6.564256508402439 1 0 0
537 6 -9.822236541972474 7.801484003410216 9.995017728504228 1 0 0
203 1 -2.4001998043666015 21.126773709794183 1.8223091771641242 0 -1 0
207 2 24.708247378296686 1.45143998297841 0.3571502876624709 0 0 0
208 3 24.54240607233659 1.3083960857810821 3.397538692104626 0 0 0
238 1 23.83331975924219 4.808936970944321 1.9895805957776873 0 0 0
243 3 23.14963420766399 6.7621259612281746 3.4861543759746385 0 0 0
269 1 24.72912678058904 7.76906405524697 1.9600331318078137 0 0 0
239 2 25.521377226048628 4.209155142424277 0.5516653643861578 0 0 0
240 3 25.58562784082243 4.33039488476889 3.6265724052985417 0 0 0
205 3 -0.4434975633049378 20.60157752733263 3.205346524372751 0 -1 0
232 1 28.19386606192206 0.4298387155536934 1.6181163204234006 0 0 0
233 2 30.045655195857087 0.08439068521712988 -0.19953420084777027 0 0 0
234 3 30.124145166459304 0.028127311896539425 3.0196931622669507 0 0 0
235 1 26.064518611404278 2.6615976088039615 2.0568614062601727 0 0 0
236 2 27.752171944347904 2.4960452124381107 0.3037090952482998 0 0 0
237 3 27.930955359505127 2.1443276220979457 3.2969257352409116 0 0 0
263 1 29.25998365603521 3.4940890190274545 1.668954922853307 0 0 0
266 1 26.959339874068064 5.5977725110978485 1.994321799433391 0 0 0
267 2 28.587790866930646 5.3549453003127345 0.2861613304576887 0 0 0
268 3 28.86924704419265 4.99169169931837 3.441156333790511 0 0 0
472 4 22.183453797600155 3.8384915793988426 8.149768573071917 0 0 0
473 5 24.07101268279137 3.591926908365434 6.6454076924234595 0 0 0
474 6 24.00353392465899 3.369042190028254 9.945039787214412 0 0 0
476 5 21.612217692555074 5.557041058485779 6.480028808952413 0 0 0
477 6 21.363484580967842 5.605847525175745 9.802507539711748 0 0 0
502 4 25.33638960075774 4.951404039298732 8.307252586752867 0 0 0
505 4 22.717133219537814 7.147619918024691 8.31548429906824 0 0 0
506 5 24.621675794581716 6.777596347975907 6.69959042949738 0 0 0
507 6 24.536963987110187 6.614422008020858 10.002650929286174 0 0 0
509 5 22.39363028700231 8.844160662100597 6.517107957209863 0 0 0
510 6 22.20789524245832 9.112546866177428 9.899378176181418 0 0 0
535 4 26.03374744858771 8.20964662314769 8.214096207225378 0 0 0
538 4 23.531292430895302 10.440964501635428 8.139132592961452 0 0 0
442 5 21.078026191208558 2.2187131811355454 6.581676816382435 0 1 0
443 6 20.873191489881243 2.3787210498020217 9.750051743373676 0 1 0
270 2 26.41467725924938 7.299460344978688 0.33415380211453843 0 0 0
271 3 26.502884405697348 7.318667990458237 3.5652574412882916 0 0 0
503 5 27.3123446236088 4.445364395202236 6.7492111958167245 0 0 0
504 6 26.987961103857 4.329285292799832 10.128414597743431 0 0 0
499 4 27.794906495148318 2.6215785768124804 8.249555310655117 0 1 0
469 4 24.726572890848534 1.5507278384528087 8.191453469369277 0 1 0
532 4 28.345822398956862 5.769303146834468 8.437990945217345 0 0 0
470 5 26.617588416809706 0.9589871666046245 6.5263481852494625 0 1 0
471 6 26.59878569590862 1.052195802381709 9.699896223822542 0 1 0
273 2 24.398602896694392 9.32793085356337 -0.005521062833011968 0 0 0
274 3 24.228641514623284 9.701876513087896 3.2833380296059467 0 0 0
11 1 32.36468165224096 4.032509084788196 1.5789788575148884 -1 0 0
9 2 -1.5340720234612475 1.2664420207662967 -0.451089671349863 0 0 0
260 1 31.393168688291315 1.2283972119806472 1.5856657934998841 0 0 0
264 2 31.015313751140994 3.0342429132798503 0.0894824877991328 0 0 0
265 3 31.049911059746535 2.782622630258492 3.1755862617236126 0 0 0
533 5 30.19849268785953 5.46377793919001 6.81722319688263 0 0 0
261 2 33.19989762769214 0.5323547259680667 -0.10907163334313094 0 0 0
262 3 33.27825233195803 0.48150659004176344 2.881302586292639 0 0 0
279 1 8.93008679010009 20.96765225403412 1.2252187928802365 0 -1 0
280 2 10.524397168564397 20.56528114400511 -0.4316911269796378 0 -1 0
281 3 10.748551944435963 20.435067493604173 2.5786253091418354 0 -1 0
282 1 34.54923311711241 1.7056622051823873 1.3788850110667217 0 0 0
529 4 30.758592159086575 3.55225941821539 8.258937114403675 0 0 0
530 5 32.449983746609774 3.1008182793021906 6.524931358310353 0 0 0
531 6 32.820528700771554 2.9906771808954433 9.699820246687132 0 0 0
534 6 30.436838409830514 5.293307086403929 10.136068237051624 0 0 0
500 5 29.568887559221785 2.1536840148254814 6.4791395255358095 0 1 0
501 6 29.523992985759236 1.9269780085052797 9.79458561415812 0 1 0
526 4 33.119101618705834 1.28248250332409 7.952998680039662 0 1 0
528 6 35.151977636147635 0.8514246017331732 9.403077012180386 0 1 0
59 1 -20.173980519549666 19.95319398057676 1.051138922917118 0 -1 0
31 1 -23.506836027985983 19.59058870017982 0.9844935308639559 0 -1 0
60 2 -18.165159650883993 19.327925780039767 -0.37049890819104564 0 -1 0
61 3 -18.642070265668668 19.61721596146346 2.823674819597991 0 -1 0
32 2 -21.760386416526007 18.930096227678604 -0.47034064446876106 0 -1 0
33 3 -21.669791973148328 18.99451551741568 2.712815825479163 0 -1 0
6 1 -21.326329408941316 17.263649233950563 1.206415186747564 0 0 0
7 2 -19.421408670207587 16.67267621606697 -0.2646290999658008 0 0 0
8 3 -19.673206722434543 16.531429657111676 2.797709488281252 0 0 0
292 4 -23.72316397914004 19.399116070629184 7.683157677162908 0 0 0
295 4 1.160227651349287 0.2001705164317814 7.613464837591798 0 1 0
296 5 -24.67344310472782 21.12907223027863 5.972282739817469 0 0 0
297 6 -24.536675371029272 21.28892811045139 9.337050966951733 0 0 0
293 5 -21.994291504633686 18.65319371811101 6.041581326681961 0 0 0
294 6 -22.098235032535452 18.813700967369506 9.45719113295224 0 0 0
327 6 5.812095401768986 0.680384089486498 9.412277519004846 0 1 0
322 4 -20.960570579374384 20.37165541946936 7.845135441904808 0 0 0
289 4 -21.341548015234576 17.058743744962893 7.820201252527002 1 0 0
3 1 -19.068095954730257 14.941133751067156 1.2422798286042451 0 0 0
90 2 -15.063818437448028 20.21855582243877 -0.48601407144810027 0 -1 0
91 3 -15.58799488524339 20.107957756705197 2.8018631205484468 0 -1 0
58 1 -18.160675708053546 17.747120424781674 1.3350356808438413 0 -1 0
5 3 -17.584913649846047 14.231804565392338 3.016243964408397 0 0 0
4 2 -17.35092284619787 14.346293813161845 -0.23851809272825994 0 0 0
285 5 -14.48246520282363 12.062120652406522 6.44293644277808 0 0 0
286 6 -14.952722129971626 12.078704408115112 9.772106114667293 0 0 0
116 1 -11.804759529093419 18.9856819500132 1.5965095781594156 0 -1 0
26 1 -16.01372139746594 15.444542175502939 1.4788048418725872 0 0 0
29 2 -16.340450735545165 17.193784871821464 -0.0840369339276279 0 0 0
30 3 -16.362665454304675 17.341845442094527 2.8430962619176756 0 0 0
86 1 -14.874035461717876 18.40575722292987 1.2680417025806194 0 -1 0
87 2 -12.934544905809954 17.616802179744006 -0.09760736111545885 0 -1 0
88 3 -13.342353514293688 17.808478169397418 3.1631841644826753 0 -1 0
118 3 -10.216966659488039 18.40119505593217 3.2779610638037817 0 -1 0
20 1 -11.937482537912926 10.692361251279292 1.6729579425159746 0 0 0
22 3 -10.036817084455247 10.293535615730448 3.2190521582695184 0 0 0
23 1 -13.893549916810574 13.026018047630417 1.3047554690714491 0 0 0
24 2 -12.138200221861565 12.283208896342906 -0.21018760255995994 0 0 0
25 3 -12.191404476855896 12.47320414325621 3.0551971361855514 0 0 0
27 2 -14.15749511982443 14.988186938843002 -0.1313636688713796 0 0 0
28 3 -14.461672209051654 14.838016985206849 2.916446302529601 0 0 0
52 1 -10.839982225899474 13.709551059409923 1.6133024054104224 0 0 0
55 1 -12.888491220509085 15.940763505172468 1.615727685905438 0 0 0
56 2 -11.190154727671576 15.632118733875743 0.11371496993268229 0 0 0
57 3 -11.246024596750335 15.45383856061052 3.2244904466232436 0 0 0
287 5 -16.951096691284338 14.387522834547571 6.295585747938901 0 0 0
288 6 -17.219370174413008 14.42317601031194 9.515435063014728 0 0 0
290 5 -19.51926999286612 16.50904897990996 6.1222409844035095 0 0 0
291 6 -19.61604595126327 16.628908987445687 9.397257589831755 0 0 0
316 4 -15.802012272977267 15.82261814194982 8.137049360619766 0 0 0
319 4 -18.30984395665285 18.02566091137248 7.845524581177773 0 0 0
320 5 -16.422227072987486 17.711974990082176 6.375138102173848 0 0 0
321 6 -16.583248425539324 17.639019436390505 9.811863955521083 0 0 0
323 5 -18.92680224814651 19.86666155928398 6.2634522673773905 0 0 0
324 6 -19.196160249246585 19.7699795057675 9.545386117524377 0 0 0
349 4 -15.368191327024057 19.123586251488582 8.138334625749359 0 0 0
352 4 -17.756487310789037 21.26441391526447 8.031457066335363 0 0 0
353 5 -15.915912397820701 20.848029855940613 6.401764800561118 0 0 0
354 6 -15.89548664157799 20.98444530305964 9.69349773474025 0 0 0
317 5 -13.942050356269668 15.357502878665498 6.5785972987329435 0 0 0
318 6 -13.952783297383728 15.49747804731477 9.904757720213423 0 0 0
313 4 -13.388962532975805 13.507964465725303 8.296234727327096 0 0 0
346 4 -12.629902806840573 16.816471288237388 8.186688536766805 0 0 0
350 5 -13.553909012478295 18.63587358044988 6.537469712027325 0 0 0
351 6 -13.494998326126566 18.75647920255625 9.788315295349745 0 0 0
384 6 14.71444231747268 0.33505290755641154 9.769164255164277 0 1 0
1 2 22.212914584869935 11.751568200881424 -0.14836491871817292 -1 0 0
2 3 -15.209039266320676 12.036998085373735 2.9552478113454352 0 0 0
379 4 -12.139942439076718 20.15166114168172 8.096187050548846 0 0 0
383 5 14.882902551457393 0.3475490400761134 6.3528287230260485 0 1 0
540 4 18.61261527425869 14.804192765843002 7.817986430821416 0 0 0
341 5 -5.968502405442276 11.727669027543802 6.6465856737985165 0 0 0
173 1 -5.642283868451189 20.412092505149253 1.7877936998758701 0 -1 0
174 2 -3.8621167330074933 20.040690055744903 0.14082896449646587 0 -1 0
117 2 -10.014319958138524 18.506373152862412 -0.01728263136045322 0 -1 0
21 2 -10.233079781373 10.066533198640517 0.20115269104725222 0 0 0
83 1 -9.848903980109434 16.693462277153763 1.6008621253324615 0 0 0
340 4 -7.701315687248369 12.318349642900182 8.350816738086465 0 0 0
342 6 -5.948614578739378 11.947794123918996 10.004838956048353 0 0 0
143 1 -8.49422029235051 19.80247713780642 1.8236632135533375 0 -1 0
144 2 -7.043761493525689 19.400884587043446 -0.05870341835156964 0 -1 0
145 3 -6.790121038350486 19.01188526967164 3.2918904743027384 0 -1 0
175 3 -3.791713737568837 19.8325940580056 3.4874159123636295 0 -1 0
49 1 -8.736327394319073 11.350951197264225 1.5571736352314618 0 0 0
53 2 -9.152209515040251 13.080220925471416 -0.09516823217054948 0 0 0
54 3 -9.040850331366881 13.203905325450183 3.0205370142790566 0 0 0
80 1 -7.658315686518236 14.279792796108127 1.4519014214926227 0 0 0
84 2 -8.085062493666483 16.31004142921609 -0.059720538560113286 0 0 0
85 3 -8.02827491181234 16.02385731238582 3.0140889548280594 0 0 0
314 5 -11.582958126966332 13.146529246532545 6.696852643818543 0 0 0
315 6 -11.463145071661211 13.131638845582158 9.943629840700618 0 0 0
170 1 -3.3979621534118314 18.117665287773203 1.6489299324926587 0 -1 0
50 2 -6.9605520783828005 10.87190794536676 0.04897554245112471 0 0 0
51 3 -7.020430385547573 11.059408199187718 3.3617846449534268 0 0 0
74 1 -3.3389764012151066 9.948825465176482 1.630883098499766 0 0 0
77 1 -5.471757361268321 12.028005455281216 1.6790545608408416 0 0 0
78 2 -3.6539899851757056 11.81152923693413 0.04460620073104605 0 0 0
79 3 -3.694073552770385 11.862529404458028 3.274437183695877 0 0 0
81 2 -5.94714539624798 13.752909852407639 -0.03900399928147063 0 0 0
82 3 -5.951238937213462 13.963996808003586 3.125013377422865 0 0 0
107 1 -2.3642871624575186 12.926481758785897 1.5670143038042321 0 0 0
110 1 -4.581490736648135 15.036035213589043 1.5813629776538223 0 0 0
111 2 -2.6062316168561024 14.749028958974748 -0.03281898879668431 0 0 0
112 3 -2.6736875470276997 14.632641458015803 3.2625092464546968 0 0 0
113 1 -6.784527785393854 17.483622692396086 1.4388086404702924 0 0 0
114 2 -4.869681298636258 16.96148570613042 -0.02511562138589259 0 0 0
115 3 -4.912232238718666 16.949213575601316 2.9759573112537976 0 0 0
343 4 -10.217766420634103 14.490236483035677 8.203328147354492 0 0 0
344 5 -8.156749943805021 14.087879618203974 6.547979745568916 0 0 0
345 6 -8.257718841641315 14.233224370066162 9.975866012070977 0 0 0
347 5 -10.77356349388209 16.36476783633471 6.554319101122031 0 0 0
348 6 -10.933872432380191 16.330205933525125 9.890033020160095 0 0 0
373 4 -7.088572554474691 15.685013315958416 8.190184694811139 0 0 0
376 4 -9.718466102063728 17.789258277889722 8.211313566865051 0 0 0
377 5 -7.9198893769954175 17.26280994418366 6.376218824981532 0 0 0
378 6 -7.805853920894324 17.360578078511168 9.861991599912688 0 0 0
380 5 -10.28324836653167 19.60372118942508 6.610738907711291 0 0 0
381 6 -10.194420518537793 19.804838555710113 9.695985143106801 0 0 0
406 4 -6.473388980506819 18.815941088112623 8.218948667367203 0 0 0
409 4 -8.89548202153176 21.14929560464504 8.204233908550346 0 0 0
410 5 -7.135743047076359 20.636202407180626 6.582421513264981 0 0 0
411 6 -7.246122975939999 20.506359868006598 9.859068485296783 0 0 0
439 4 21.61908794376915 0.4123170037955339 8.274369892511361 0 1 0
370 4 -4.778746868823711 13.268529127363 8.13496053604412 0 0 0
374 5 -5.4107594798469245 15.168780761344689 6.451212026994492 0 0 0
375 6 -5.215100859291371 15.159727694287817 9.738599360733513 0 0 0
407 5 -4.7245343987972825 18.459671704709713 6.421543140042355 0 0 0
408 6 -4.562751855310601 18.426389813304926 9.833466170139769 0 0 0
403 4 -4.0538775294954394 16.641126923965732 8.05572718080913 0 0 0
440 5 23.47083252725828 0.10579229098900315 6.604792739262928 0 1 0
441 6 -3.978012341266225 21.43283367050866 9.874511506441856 0 0 0
399 6 2.6207998679507916 11.651203681969577 9.505504848909082 0 0 0
204 2 -0.713993500021933 20.80950701468231 0.033935860517919525 0 -1 0
257 1 5.885870937166225 20.15283677081378 1.098853250563439 0 -1 0
171 2 -1.6814977925937664 17.745177535083965 -0.017160952144244276 0 -1 0
172 3 -1.5940465227671197 17.600198449775203 3.1677579039090333 0 -1 0
140 1 -1.2394090132474118 15.91918023632851 1.5884316262260827 0 0 0
397 4 0.6510940272211309 12.115502507733984 7.824988312184419 0 0 0
229 1 2.7949866491148003 19.723407463024458 1.415133347636627 0 -1 0
200 1 -0.2537087882060267 18.973691569834767 1.55597984331426 0 -1 0
104 1 -0.28813551494178685 10.863126771144362 1.512695168852086 0 0 0
108 2 -0.6131836815340624 12.397611564387907 -0.14783583979511447 0 0 0
109 3 -0.23935207716272883 12.630331885246873 3.027680303060084 0 0 0
141 2 0.4655066489281651 15.767831882073407 -0.18815655186630154 0 0 0
142 3 0.4506208852449231 15.515279646083217 3.0473850211027695 0 0 0
371 5 -2.9555003070422528 12.66315477828718 6.389326410915299 0 0 0
372 6 -2.9379874763108638 12.981382475250335 9.773548899969287 0 0 0
201 2 1.347980986964394 18.53131127324538 -0.13244858056564313 0 -1 0
202 3 1.7051949709028693 18.42982016964698 3.004912844260689 0 -1 0
230 2 4.269346319794092 19.103895292388867 -0.31011403795612585 0 -1 0
231 3 4.6595817629324685 19.146658698094004 2.695750192753463 0 -1 0
137 1 0.5783829565056703 13.84943109787783 1.2650752732018993 0 0 0
105 2 1.3812723960893047 9.955745085712758 -0.05182289377683443 0 0 0
106 3 1.4273827862813449 10.0638665295129 3.0553213525497194 0 0 0
134 1 2.6708185081945848 11.449363403085853 1.4409413593274945 0 0 0
135 2 4.58282486748126 10.841265773130944 -0.09527419414836819 0 0 0
136 3 4.521076691155161 11.126559562690598 3.048185650251086 0 0 0
138 2 2.283851383336462 13.103301465901275 -0.24543858446330402 0 0 0
139 3 2.33435600871042 13.251494632750356 2.8867700676077455 0 0 0
161 1 6.003320252391559 12.058746214695656 1.3138363812956244 0 0 0
164 1 3.814343641300527 14.217608889831219 1.283142496788628 0 0 0
165 2 5.442954719937574 13.61423653591425 -0.32219008255763226 0 0 0
166 3 5.473331033531902 13.843398438463103 2.8455232015848693 0 0 0
167 1 1.8592995235747785 16.653918560330748 1.3290705091547392 0 0 0
168 2 3.4649361218897505 15.998043025343259 -0.3481556958047139 0 0 0