LAMMPS data file via write_data, version 27 Jun 2024, timestep = 8000, units = metal

540 atoms
6 atom types

0 37.59365801343109 xlo xhi
0 21.52779524830364 ylo yhi
-0.7298287040046165 10.01325901212137 zlo zhi
-27.49615054720427 0 0 xy xz yz

Masses

1 95.95
2 32.06
3 32.06
4 95.95
5 78.971
6 78.971

Atoms # atomic

301 4 -4.196863878416396 10.503895531381964 8.145031010426823 0 0 0
533 5 -7.910648336164899 11.035754587557163 6.425603120065858 1 0 0
530 5 -5.397806749471214 9.169567984416018 6.489685832329348 1 0 0
531 6 -5.544342452746185 8.773540592112571 9.780816655510812 1 0 0
534 6 -8.120703768047743 11.069148101588402 9.72530590447479 1 0 0
50 2 31.57773890949745 2.373174407400004 -0.2668114441594875 -1 0 0
51 3 31.51882129701356 2.2944642492972984 3.0007479672777015 -1 0 0
77 1 32.83871535522955 3.4279603791542375 1.5188106672946458 -1 0 0
528 6 -3.1440684167762356 6.7365700738847085 9.806442228606699 1 1 0
532 4 -9.810349164600897 11.470221120501298 8.024472073942002 1 0 0
529 4 -7.311565105842603 9.363163379587629 8.080300514190006 1 0 0
526 4 -4.91244816025975 7.082869768375943 8.108714527584315 1 1 0
527 5 -2.9703958712240253 6.727144200740723 6.459263231571307 1 1 0
53 2 29.643785074229513 4.7393359877878405 0.04879354137936577 -1 0 0
54 3 29.41979292052882 4.6317167463883155 2.98063961438535 -1 0 0
80 1 -6.729549956913239 5.871703848061363 1.5094272835501625 0 0 0
81 2 -4.7511706492195485 5.317707558549865 0.09970806931739574 0 0 0
82 3 -5.017939127086002 5.222292684811853 3.1365017904099797 0 0 0
303 6 -2.4674235901718746 9.918073399564454 10.00325901212137 0 0 0
523 4 -2.442417235267753 4.936814399589005 8.239472539761262 1 1 0
55 1 25.563618400004277 7.490282836528006 1.0809426807668276 -1 0 0
57 3 27.226410323799023 6.711213599759118 2.8965787668793452 -1 0 0
56 2 27.338692205956345 6.9040438981498555 -0.536145054087183 -1 0 0
83 1 -8.839732751117603 8.032061510877698 1.2728906472753199 0 0 0
84 2 -6.882906838636568 7.474842160370749 -0.13818211256900775 0 0 0
85 3 -7.31496777873257 7.593920549765512 3.007578258117291 0 0 0
113 1 -5.895960517886645 8.788618667474882 1.5677371867552026 0 0 0
78 2 -2.911923243670493 2.8281417297838147 -0.07903459253429446 0 0 0
79 3 -3.1011832469685667 2.8814741104840826 3.068894512148938 0 0 0
74 1 34.954401263229656 1.1237303356551973 1.4794033735567649 -1 0 0
71 1 9.843279059171229 20.448954995119458 1.42801953093097 -1 -1 0
302 5 -2.334850029921939 9.92169542815614 6.549900271984765 0 0 0
328 4 1.2994834769216574 9.084889745505201 8.25899332151749 0 0 0
331 4 -1.2067779006758317 11.372036245240798 8.1496640694963 0 0 0
332 5 0.6559590796897341 10.911713933686542 6.577857944611713 0 0 0
333 6 0.6904826993710568 11.05262522202787 9.792454570116295 0 0 0
298 4 -1.9085486286301725 8.1242009375214 8.27460593191962 0 1 0
299 5 0.057038261750125885 7.6666256807667255 6.702449088976536 0 1 0
300 6 -0.04213479211306262 7.800016090488528 9.99287124227352 0 1 0
72 2 11.541861749728078 20.126625623540217 -0.04241412186457201 -1 -1 0
73 3 11.328050848749434 19.75379078332138 2.9143810634229164 -1 -1 0
101 1 -24.792911929864577 21.277693343927496 1.4808937852059347 0 -1 0
329 5 3.3296238153110798 8.837097124449915 6.430616817229533 0 0 0
330 6 3.216517846991286 8.856753626652186 9.831085277200733 0 0 0
363 6 3.859448631942609 12.107915469042178 9.911488888891528 0 0 0
325 4 3.8823039416299268 7.119376618299289 8.164675206687303 0 1 0
75 2 -0.9666882396593259 0.7588232476063809 -0.09933722615675822 0 0 0
76 3 36.841810119790885 0.5785318240731634 2.913603236713842 -1 0 0
358 4 4.549343133623665 10.356511862170388 8.149511211565818 0 0 0
362 5 4.020892248751437 12.020304200778115 6.607147098333316 0 0 0
104 1 0.5867138202334856 2.028331538909695 1.4599105453951258 0 0 0
105 2 2.2414872749983785 1.5430145085980551 0.06885266606715323 0 0 0
106 3 2.2788669711034215 1.5649811163755927 2.925026454571017 0 0 0
295 4 0.6142133812419861 6.0482718293818465 8.35369394003171 0 1 0
296 5 2.4033514575941313 5.74061981910908 6.667985517425217 0 1 0
297 6 2.775910838394747 5.625930863091575 9.962591578231072 0 1 0
107 1 -1.6887858425787234 4.109469321085363 1.5415190151975722 0 0 0
108 2 0.11528522291850009 3.6491603551770204 -0.0890806366259167 0 0 0
109 3 0.06992750566199452 3.7348196725564478 2.98759997920654 0 0 0
134 1 3.608359862299777 2.794198937460645 1.6095945363810698 0 0 0
138 2 3.2588661482171917 4.539264952026624 -0.021703708005792372 0 0 0
139 3 3.226782401485204 4.538191384107071 3.2773414968135626 0 0 0
524 5 -0.5562456602815661 4.5401685352966705 6.658178880959581 1 1 0
525 6 -0.6284496003927432 4.450775115844122 9.938342407865258 1 1 0
292 4 3.0922961540624923 3.781922411058391 8.234173393822388 0 1 0
293 5 4.735921213057596 3.4108647017383436 6.398245416970625 0 1 0
294 6 5.045655310250004 3.3568042086981285 9.812873893221923 0 1 0
111 2 -1.9996045427934948 6.15963372020936 0.05726385603924398 0 0 0
112 3 -1.9948039152468322 5.717713678125731 3.174141562372205 0 0 0
137 1 1.4103124682638604 5.129512402488279 1.5230220631257871 0 0 0
326 5 5.707996149833093 6.517894735067455 6.329853014644517 0 1 0
327 6 5.785549733540663 6.607231854206465 9.692158933888738 0 1 0
289 4 5.455522936259408 1.5929572966230061 8.011502370717587 1 1 0
521 5 1.8643406157139972 2.434092015838032 6.6504475829969865 1 1 0
522 6 1.7601075659818446 2.318854449912137 9.909418878797947 1 1 0
110 1 -3.7018945201065594 6.569085191062111 1.7025377575992644 0 0 0
114 2 -4.049214814705357 8.407303549465384 0.09318530683064188 0 0 0
115 3 -4.274779308584494 8.478816330909215 3.4074331365155914 0 0 0
140 1 -0.6286941382028425 7.327721951802261 1.6541424086975016 0 0 0
141 2 1.027294788622756 6.951558974775872 0.05141251504112946 0 0 0
142 3 1.0441697672198245 6.840675908196351 3.1254900676471267 0 0 0
167 1 2.4512212981935586 8.057039931319027 1.7085218021065771 0 0 0
520 4 -0.08312071993670597 2.738129313911159 8.238658279430165 1 1 0
102 2 -23.27992864582371 20.684076685115844 -0.24450852721931599 0 -1 0
103 3 -23.043409689616468 20.591908205765243 2.925773624894781 0 -1 0
135 2 5.275614829189767 2.2296986258435143 -0.13317540515538834 0 0 0
131 1 5.6763179443421965 0.24403538972101624 1.253803939340458 0 0 0
132 2 -20.02668692688795 21.28356818203415 -0.2190747944634368 0 -1 0
133 3 -20.21614445733992 21.49856090632779 2.9015637252916604 0 -1 0
359 5 6.287149126829213 9.91688391467367 6.563454207053988 0 0 0
360 6 6.422548750664938 9.987559058833 9.821020327309842 0 0 0
388 4 7.5921314081140086 11.33395607654904 8.221996390384609 0 0 0
389 5 9.2443634060246 10.968924970411324 6.313869193863339 0 0 0
390 6 9.56425062143122 10.692161196783012 9.623878807775842 0 0 0
387 4 10.041284957478165 8.95628243404562 7.910244064028632 0 0 0
355 4 7.06081234342947 7.996781606491438 8.053938138738111 0 1 0
155 1 -16.678743550447184 20.261942268445182 1.5038298150868796 0 -1 0
356 5 8.776384325142518 7.502102644347117 6.314001580883002 0 1 0
357 6 8.96083686953052 7.597753548367471 9.626647762132956 0 1 0
385 5 11.713674413914925 8.524626332766612 6.147751496178981 0 1 0
386 6 11.892533890448632 8.740672534684116 9.496519200616948 0 1 0
158 1 8.711497749940971 1.0290374233611337 1.5262230210005503 0 0 0
159 2 10.780748127362694 0.5484323018842965 -0.10294868500630722 0 0 0
160 3 10.584190922459888 0.47665476123822637 2.98042357881871 0 0 0
419 5 12.445203058739008 11.98889770011205 6.100855706550975 0 0 0
420 6 12.516239671610014 11.730328120182993 9.626595371853147 0 0 0
382 4 12.455984334495326 6.820329708702806 7.824642160348369 0 1 0
415 4 12.997769632873828 10.061908095217142 7.787820853449694 0 0 0
322 4 6.341476552600333 4.776204372489814 8.111183555178664 0 1 0
352 4 9.291809425504946 5.656641408109369 7.92062763688399 0 1 0
353 5 11.10941302804635 5.273064778418848 6.182484564246906 0 1 0
354 6 11.296250594255373 5.320788048492157 9.505817323666806 0 1 0
136 3 5.286019901338543 2.016760284942794 2.946635018064012 0 0 0
161 1 6.68090351080105 3.3671078473345655 1.5709083414975733 0 0 0
162 2 8.429254361759856 2.7861089236176952 0.10780746134743598 0 0 0
163 3 8.363215191277177 2.7724340638492326 3.116524573453862 0 0 0
191 1 9.68693045296852 4.162776677261614 1.607928905018979 0 0 0
192 2 11.413073903703483 3.6674949400147683 -0.03419643472597292 0 0 0
193 3 11.567413151642349 3.5002667054998335 3.0998790760035466 0 0 0
323 5 7.940320655971392 4.261795331428225 6.25309480397145 0 1 0
324 6 8.336827199125707 4.258696705865134 9.731951803763563 0 1 0
349 4 11.835641753488538 3.5245706624080335 7.799171037011677 0 1 0
164 1 4.6366726853922 5.676140706044633 1.554318674502601 0 0 0
165 2 6.400239517468083 5.200101500525924 0.1320176623482659 0 0 0
166 3 6.403917799634602 5.250445082617324 3.1999232402070574 0 0 0
194 1 7.557357958596571 6.491184121935624 1.6155142877621542 0 0 0
195 2 9.448136359188151 5.939786743019374 0.12173245221110503 0 0 0
196 3 9.40595297301484 6.1426202411972906 3.236864901414441 0 0 0
350 5 13.719892974038265 3.185953779860553 6.057852814462147 0 1 0
351 6 13.800130534710668 3.070485883297794 9.491071675671833 0 1 0
319 4 8.696049344164365 2.4048490266572355 7.858552340267303 0 1 0
320 5 10.410670603948779 2.0919797757081695 6.192484166078188 0 1 0
321 6 10.639438194730792 2.0551811027550793 9.549634308800965 0 1 0
168 2 4.109423209503287 7.656863572592515 0.2572187821584047 0 0 0
169 3 4.383548539584893 7.369634416298238 3.224634348585578 0 0 0
197 1 5.467629968287386 8.758639562330814 1.825169568994169 0 0 0
198 2 7.109674782065283 8.2113954383493 0.06873291336406234 0 0 0
199 3 7.324197908818511 8.078545737230652 3.369615891593949 0 0 0
224 1 10.987801916775334 7.109830266750428 1.5900865319984014 0 0 0
227 2 10.275873709530856 8.752650055841487 -0.16460795887365887 0 0 0
228 3 10.446111038657289 8.929412913514787 2.9991375303574945 0 0 0
156 2 -14.647897444077792 19.886215782589165 -0.044410410887617636 0 -1 0
157 3 -14.952297619210402 19.90010368638765 3.0868261556183576 0 -1 0
188 1 12.114913807649668 1.8046241815850184 1.4844317101210527 0 0 0
225 2 12.636519356656034 6.468093756279208 -0.12319216138313946 0 0 0
226 3 12.56043491164666 6.412118502366179 3.10196625197353 0 0 0
189 2 13.764897498288367 1.2817371570083729 -0.07641883512224756 0 0 0
190 3 13.892909645752285 1.1657741941341333 3.224875952187593 0 0 0
185 1 -13.406146715731602 21.033029530561496 1.6650119716122385 0 -1 0
186 2 -11.832213669604865 20.488911967512017 0.090807483293828 0 -1 0
187 3 -11.477445093028608 20.608290692166456 3.160480933867262 0 -1 0
416 5 14.795672367163634 9.745411608163684 6.119381505471076 0 0 0
417 6 15.055994145606682 9.583399341819536 9.472103068404481 0 0 0
445 4 16.06595388940921 11.054677639623264 7.794712384438384 0 0 0
446 5 17.861391442286532 10.652725062512156 6.096150668613175 0 0 0
447 6 17.840572453814904 10.713662386854745 9.407823049908345 0 0 0
412 4 15.452841493616717 7.817172675477384 7.770725378822869 0 1 0
444 4 18.476671440164182 8.828508133720133 7.688765934238747 0 0 0
413 5 17.235702543872907 7.389333359561738 5.997039772649629 0 1 0
414 6 17.301682784007202 7.465331228881402 9.314455926660122 0 1 0
215 1 17.462533851348294 0.1456845610447132 1.366825220208753 0 0 0
216 2 -8.263609533179691 20.963923673009663 -0.32861567470672154 0 -1 0
217 3 -8.243138702844885 21.08422974119896 3.01129187790073 0 -1 0
442 5 20.592553030249626 8.366973858557582 6.151220192219398 0 1 0
443 6 20.174798485421153 8.542824110143677 9.551059556558995 0 1 0
384 6 14.180909369872344 6.344565875125404 9.452669861955846 0 1 0
383 5 14.3280190528827 6.420318391637821 6.1614215235684755 0 1 0
219 2 16.935506009479408 1.9037960927740682 -0.009062494892730002 0 0 0
220 3 17.14561365873506 1.9662006176291311 3.0249182871532443 0 0 0
476 5 21.00902856948485 11.6187726957829 6.174193012607849 0 0 0
477 6 20.794984891373346 11.853986954369478 9.47035055823993 0 0 0
439 4 20.902249645930812 6.650621179136503 7.855530632407635 0 1 0
379 4 14.940680378600197 4.582676603427557 7.822320996550225 0 1 0
409 4 18.06309724965367 5.65627217000405 7.7330215130237585 0 1 0
410 5 19.819051889717496 5.334004071065095 6.0291452159160395 0 1 0
411 6 19.722256838009177 5.145232614282657 9.437463993044444 0 1 0
223 3 14.807147327160875 4.298008836097466 3.206520393281927 0 0 0
218 1 15.123085346275209 2.37979026187033 1.5712026477646568 0 0 0
247 1 18.436338835140617 3.2396516634160397 1.390708029272971 0 0 0
248 2 20.311413675796494 2.619662410012276 -0.33020888648194 0 0 0
249 3 20.262992248201623 2.667759896866877 3.058760014044365 0 0 0
472 4 21.565137012025787 9.957022507460614 7.829297518734601 0 0 0
380 5 16.947990300069176 4.161314504949512 6.166803300049948 0 1 0
381 6 16.73978127513917 4.29631397413777 9.718287880491637 0 1 0
406 4 20.38012080084977 3.4189262073499935 7.710746239868642 0 1 0
221 1 13.143787744670488 4.581011258310504 1.5700303687155712 0 0 0
3 1 19.108385939445167 6.238588247119588 1.1637726183195831 -1 0 0
222 2 14.600021134629351 4.293720527398823 -0.4456571569982313 0 0 0
250 1 16.055547163010775 5.356789386432205 1.4658046713362505 0 0 0
251 2 17.698761693939275 4.983038308163149 -0.2576683888223823 0 0 0
252 3 18.115575774476987 5.301401485500513 2.9562070440560992 0 0 0
346 4 14.418413531527634 1.4443485119880892 7.857553832156772 0 1 0
376 4 17.44341223208916 2.3815682938456626 7.902203695527759 0 1 0
377 5 19.15980323168597 1.719594495540827 6.164951823567658 0 1 0
378 6 19.195903874530075 1.9388434835913566 9.51741755119278 0 1 0
407 5 22.264893143847733 2.8985698173568255 6.077370216479706 0 1 0
408 6 22.00607923925175 2.8724927717076936 9.4453509177939 0 1 0
6 1 17.15565736580244 8.4313233020773 1.385771145098379 -1 0 0
7 2 18.952621619065404 8.02889085863999 -0.38353944419555747 -1 0 0
8 3 18.88902337577942 7.888951827719939 2.8470727367153983 -1 0 0
253 1 13.942942964910051 7.662803091537487 1.5775594406046223 0 0 0
254 2 15.656933204030741 7.083277357482149 -0.19512860056137502 0 0 0
255 3 15.747104143778383 7.2280679367634395 3.004650080888597 0 0 0
28 3 24.072641389352096 6.282206028888826 2.5156349844960855 -1 0 0
52 1 27.815399478636657 5.0673262420756195 1.302890340531756 -1 0 0
244 1 20.495173201159087 0.7697138481916012 1.2970252793727366 0 0 0
4 2 21.080011846727743 5.427592393631873 -0.21998897125872427 -1 0 0
5 3 20.914413195535957 5.737328841549516 2.743572331057702 -1 0 0
24 2 26.438824486822526 4.055248911636102 -0.5415270167608539 -1 0 0
25 3 26.320600841655814 3.973558397485179 2.777870639943528 -1 0 0
20 1 26.658513912634614 2.314901127548143 1.0798169803561837 -1 0 0
21 2 28.39810287030982 1.8811162937333523 -0.38724190818879717 -1 0 0
214 3 22.073323999020644 0.5482998433304798 2.92876661207945 0 0 0
241 1 -5.14010368605838 20.00286051498725 1.759019780837928 0 -1 0
245 2 -5.216626579342174 21.360016385110654 -0.11896515961392401 0 -1 0
246 3 22.256676151731764 0.4763790661667664 3.077200273482005 0 0 0
269 1 -2.0201632655325303 20.829086743123405 1.3094756937432825 0 -1 0
473 5 23.50812251243639 9.400046390200387 6.20083592350421 0 0 0
474 6 23.41659093822148 9.208426183193506 9.531653149446495 0 0 0
502 4 -12.793408221329022 10.728017960523964 7.819496956731508 1 0 0
270 2 -0.4328742551273611 20.02182140278819 -0.3333906756083249 0 -1 0
271 3 -0.24828059407898417 20.245377585866862 2.853779624893754 0 -1 0
503 5 -10.985377008364717 10.18803017809084 6.245917217987333 1 0 0
504 6 -11.17586884464396 10.117126549047043 9.4652768304914 1 0 0
499 4 -10.430959178319009 8.298804702738934 7.9996096620651835 1 1 0
469 4 24.16244768167651 7.483064500624326 7.935889048894188 0 1 0
470 5 25.955657067925312 7.076201852031406 6.395616727311189 0 1 0
471 6 25.99470436980823 6.97214523877771 9.69230143163774 0 1 0
273 2 25.13670143283676 1.1070196770915994 -0.5141786599433769 0 0 0
274 3 25.466291001845608 1.1284195908470096 2.7869250703194717 0 0 0
440 5 22.781817366553334 6.173045297731524 6.228473273759719 0 1 0
441 6 22.704332973984666 6.153641516510148 9.525380734206632 0 1 0
272 1 23.637386515492224 1.4460986569741083 1.1728925247358077 0 0 0
500 5 -8.37765885191916 7.923953983670491 6.453031704589471 1 1 0
501 6 -8.568053571780423 8.086463034629181 9.70619547339813 1 1 0
466 4 26.53139201236845 5.1814449172339865 8.068587371952583 0 1 0
467 5 28.36555831022611 4.76183186203424 6.445407801901839 0 1 0
468 6 28.214794371275072 4.562320116073087 9.766704231223542 0 1 0
275 1 21.734461915875347 3.8815132499134934 1.3124326010116198 0 0 0
1 2 23.165953311610572 3.2104822306828757 -0.5295637159586026 -1 0 0
2 3 23.670126530945538 3.3446754797337768 2.729244284638479 -1 0 0
496 4 29.568108165371832 6.115705214398219 8.171851133938192 0 1 0
23 1 24.77624526880013 4.409977362642309 0.9861408190513055 -1 0 0
27 2 24.164859391582446 6.253321522299734 -0.39540913653222637 -1 0 0
436 4 23.33405789131963 4.3484170201266865 7.835002216966657 0 1 0
437 5 25.359152964741337 3.8811691361691234 6.195428112965859 0 1 0
438 6 25.03763243270353 3.777853910377817 9.612245931908792 0 1 0
463 4 29.024576136083997 2.9397292005207527 8.069176877994323 0 1 0
29 2 21.83951001337023 8.66414961046245 -0.4319116531335465 -1 0 0
30 3 22.051919717615203 8.578429856596697 2.776425726797828 -1 0 0
433 4 25.78211961349368 1.9806164037321234 7.957618118148307 0 1 0
434 5 27.59736462410448 1.5454749053729009 6.367912285202281 0 1 0
435 6 27.545540056955208 1.5563016327659396 9.637944493352027 0 1 0
26 1 22.38358822858952 6.858822069448061 1.0773660629005057 -1 0 0
43 1 6.5346652582273554 19.814754472965873 1.1708147853664113 -1 -1 0
47 2 33.82551465204925 0.02566016174430619 -0.20234194437594627 -1 0 0
48 3 6.179569641998364 21.323365780784453 2.9875959396148493 -1 -1 0
46 1 31.976799811446035 0.6935653871416668 1.4054125052091104 -1 0 0
49 1 29.832485851242314 2.869143102183294 1.3303244163819543 -1 0 0
22 3 28.12654402457748 1.5080386797830643 2.755501228844028 -1 0 0
17 1 1.18951727382058 21.419382599602326 1.0919867319135037 -1 -1 0
18 2 3.1596742302783976 21.033522246808253 -0.287927741996784 -1 -1 0
19 3 2.7880741213547697 20.98030257418271 2.835232486552211 -1 -1 0
497 5 -6.082876682101695 5.702465317252914 6.30732638916419 1 1 0
498 6 -6.13954903088532 5.574028454366712 9.822677345516382 1 1 0
493 4 32.086549523265774 3.9045052104974407 8.116418135201409 0 1 0
494 5 -3.5685956050010312 3.6515764703467934 6.565518201681186 1 1 0
495 6 -3.7807619899440277 3.4929053310814187 9.86953859831082 1 1 0
464 5 30.9093047501627 2.3885783166616306 6.495176056696865 0 1 0
465 6 30.82038980949713 2.4026406771446136 9.74011714235261 0 1 0
490 4 34.4426825256891 1.6729761689755802 8.138548898389121 0 1 0
68 1 11.654773230904544 18.143552447639973 1.3710954827821296 -1 -1 0
69 2 13.423763724394114 17.836039357894347 -0.4336630819406444 -1 -1 0
70 3 13.42780583928762 17.79034689952106 2.8724708899492115 -1 -1 0
98 1 -22.837983842900993 18.942554434092862 1.228168005479709 0 -1 0
99 2 -21.12347216762032 18.404575303019737 -0.2605943148666532 0 -1 0
100 3 -21.071906258725654 18.641950791684515 2.908641319082044 0 -1 0
65 1 13.744287540519517 16.096282739472972 1.278222696391276 -1 -1 0
67 3 15.36526430254227 15.468893686310478 2.9207169794338426 -1 -1 0
95 1 -20.67501141725046 16.731080188807812 1.4281884715863378 0 -1 0
66 2 15.75363341437711 15.536250080261686 -0.1925228193288757 -1 -1 0
291 6 7.435824661814224 0.9817818467125117 9.606655063651502 0 1 0
290 5 7.235899354475535 1.0567180446910867 6.215340462292834 0 1 0
540 4 -19.332655954754596 20.811756276590224 7.870867769360225 1 0 0
518 5 4.266879137694828 0.09451595003492112 6.355031387238045 1 1 0
519 6 -23.218582222017304 21.496506812172118 9.82804779359627 1 0 0
517 4 2.4365625234988366 0.6004830544884523 8.13589749585098 1 1 0
515 5 -20.68762848928466 19.40614512939279 6.296692304590495 1 0 0
516 6 -20.621247170047873 19.4298459787122 9.70234710416526 1 0 0
128 1 -19.640460077189573 19.71783981691696 1.456348892902753 0 -1 0
129 2 -18.25650688612225 19.169344742086256 -0.23631735912932858 0 -1 0
130 3 -18.07719708680866 18.82624966594517 3.1065655391509384 0 -1 0
152 1 -14.477951352494271 18.20731116648536 1.5592257820234598 0 -1 0
153 2 -12.529408200267259 17.74476225428361 -0.10516668025326643 0 -1 0
154 3 -12.496717987772282 17.81354228524247 3.042501763625082 0 -1 0
506 5 -13.44841272860807 12.553110794416662 6.117328434021472 1 0 0
507 6 -13.510220871349295 12.387101740642468 9.471287367815256 1 0 0
63 2 17.606365865211473 13.284604718626843 -0.24010615238521615 -1 -1 0
64 3 17.694102519482946 13.15214941563035 2.8808019014908806 -1 -1 0
535 4 -12.241502819588156 13.931351340685472 7.887028954663609 1 0 0
96 2 -18.927509853313857 16.078517467176095 -0.15998745753510057 0 -1 0
97 3 -18.845983651193716 16.100205582638328 2.8652029670157706 0 -1 0
125 1 -17.612268609886307 17.348898183252206 1.3042289302341499 0 -1 0
122 1 -15.483966735228924 15.342187944868378 1.3734418680940237 0 -1 0
126 2 -15.632403045536087 17.14095948727985 -0.315897405344554 0 -1 0
127 3 -15.873487294408019 16.835501278658814 3.0108616481316077 0 -1 0
283 5 -12.599250352630214 15.781807318408802 6.2747168830080575 0 0 0
284 6 -12.797937280539653 15.65721241958433 9.508122378077173 0 0 0
92 1 18.949197044699773 14.384903384457981 1.3563689389629974 -1 -1 0
93 2 -16.820282589376827 14.15454242591592 -0.250512343588303 0 -1 0
94 3 -16.882667719861498 13.878972797858735 2.7796083976340586 0 -1 0
124 3 -13.718241109463834 14.505755521500404 2.880771031502516 0 -1 0
123 2 -13.73280422751505 14.819558843556445 -0.15108291661660667 0 -1 0
538 4 -14.507754979369286 16.3778083249707 7.776214767932376 1 0 0
89 1 21.12350710266726 12.157085801863488 1.1540580317186047 -1 -1 0
119 1 -13.50630891702786 12.950106260456757 1.2195744138622047 0 -1 0
60 2 19.60094367572158 10.745471739242749 -0.2611798764003057 -1 -1 0
90 2 22.803048469478373 11.34629531832896 -0.4352864046095014 -1 -1 0
91 3 -14.699627683576376 11.526475535701419 2.6307252119573517 0 -1 0
285 5 -15.081550862288235 18.247578975070848 6.154960308087405 0 0 0
286 6 -15.026715222923448 18.269069035623883 9.444088229444255 0 0 0
86 1 23.343644304351574 9.639322347761034 1.0955096413956886 -1 -1 0
87 2 25.2861004601404 9.236643724298892 -0.7198287040046165 -1 -1 0
88 3 25.18820105175433 9.268546799410318 2.6002737370605886 -1 -1 0
287 5 -17.530648344187405 20.510560571325552 6.2344959397626685 0 0 0
288 6 -17.426046855950982 20.41270450682458 9.540190647918983 0 0 0
316 4 11.282821717424689 0.28148792046289994 7.9004767028281675 0 1 0
317 5 13.086654345022106 0.02172150563094564 6.230844467645142 0 1 0
318 6 -14.313194898881745 21.457720258852707 9.539900242132694 0 0 0
313 4 -13.727592934983722 19.7256281965326 7.8458994058206 0 0 0
314 5 -11.925986730769763 19.0809387746581 6.297724488932842 0 0 0
315 6 -11.953358211224733 19.119861638342243 9.585626237345291 0 0 0
310 4 -11.480245820205871 17.183260988974098 8.00821714256593 0 0 0
347 5 15.996724854460002 0.8769046543239383 6.185432839654503 0 1 0
348 6 16.208283968956806 0.9116902341064252 9.60377850592735 0 1 0
539 4 -16.95673223887735 18.576746682783885 7.92771320678816 1 0 0
536 5 -10.291410433742499 13.421357752966609 6.441484979864915 1 0 0
343 4 -10.80420025438807 20.57997643674295 7.906345116642315 0 0 0
509 5 -15.740500621505408 14.97086637744274 6.082169787780794 1 0 0
512 5 -18.305473999396106 17.151057016105856 6.17840040205144 1 0 0
513 6 -18.122820134394917 17.082380696502174 9.605309388061189 1 0 0
510 6 -15.73232993937604 14.88721083478712 9.387679879011742 1 0 0
304 4 -6.686200223397175 12.51935585792794 8.22724795125412 0 0 0
305 5 -4.831960399771014 12.181941552528682 6.459932163211903 0 0 0
306 6 -4.710529302423795 12.32829150597687 9.710539332161343 0 0 0
537 6 -10.560768589086763 13.27647211240245 9.74105121204819 1 0 0
182 1 -11.105568817779645 18.781071245638454 1.4786883083483056 0 -1 0
183 2 -9.357328774596468 17.977143443267032 -0.15565840089554614 0 -1 0
184 3 -9.463775662375575 18.182296946126552 3.1677184997206376 0 -1 0
212 1 -8.032975930096331 19.201371952483623 1.4390381982493563 0 -1 0
213 2 -6.248018462998356 18.826786414728065 0.015081599088031477 0 -1 0
149 1 -12.248622315178341 15.802200895270344 1.437210083856818 0 -1 0
307 4 -9.239915927736716 14.793495231990972 8.140242618913511 0 0 0
308 5 -7.42221643012003 14.272468651121038 6.553680475916108 0 0 0
309 6 -7.2898476978079 14.355707089733368 9.778881191001595 0 0 0
334 4 -3.6329897466271763 13.696658408714299 7.994158897311993 0 0 0
150 2 -10.516382703173306 15.527663588693335 -0.016057758268685843 0 -1 0
151 3 -10.65776118095754 14.903585096251714 3.0416106761841673 0 -1 0
179 1 -9.194846812107134 16.304964027828913 1.6031460391110506 0 -1 0
180 2 -7.3361330758769645 15.894124935554785 -0.15009732706371434 0 -1 0
181 3 -7.494497774939227 15.823503827454699 3.188797033748957 0 -1 0
209 1 -6.308932973534436 17.17233059880144 1.5039596237623436 0 -1 0
211 3 -4.312736880349385 16.903125250242134 2.9893535903479322 0 -1 0
120 2 -11.861402756559361 12.520566522511356 -0.4003690760978829 0 -1 0
121 3 -11.67507130588841 12.220199840835374 2.6934245006358872 0 -1 0
116 1 -11.208943528029474 10.63396514491439 0.8782680446713947 0 -1 0
337 4 -6.138455904817878 15.868593089260369 8.02627755843986 0 0 0
338 5 -4.161485343506874 15.435333688731586 6.259933525205317 0 0 0
339 6 -4.309489816392651 15.446945234522504 9.681078798774804 0 0 0
146 1 -10.170852708173799 13.525730741486083 1.358476822256735 0 -1 0
176 1 -7.121441491606818 14.054960522357495 1.5369416229753972 0 -1 0
177 2 -5.470661826139513 13.733882088658516 -0.11629282428627963 0 -1 0
178 3 -5.333031855586048 13.77864830028128 3.126928080271238 0 -1 0
311 5 -9.545693235341751 16.742080980462326 6.43368610400288 0 0 0
312 6 -9.720104226758027 16.619677665261488 9.746997627841402 0 0 0
147 2 -8.558840754226468 12.929102994800555 -0.22156564315741653 0 -1 0
148 3 -8.627718487522843 12.766926672513003 2.979456764023086 0 -1 0
118 3 -9.644960866727093 9.978315204962808 2.7040410599703746 0 -1 0
341 5 -6.615148041610769 17.81556431204665 6.28270363992847 0 0 0
173 1 -5.050397774922115 11.87723763931308 1.6620693389742034 0 -1 0
117 2 -9.093129525765493 9.61555557891678 -0.41788661514287445 0 -1 0
340 4 -8.37887470508136 18.279411704628906 8.21831948186052 0 0 0
342 6 -6.574917586237341 17.859032375640695 9.706024948308539 0 0 0
143 1 -8.127114120428944 11.062553174669079 1.3170352840259452 0 -1 0
144 2 -6.293260138530126 10.705241451890567 -0.11452283483572666 0 -1 0
145 3 -6.568155314786196 10.678072187281494 3.0931042685910914 0 -1 0
344 5 -8.989544704838517 20.005109438778373 6.355907498047259 0 0 0
345 6 -9.067368299663725 20.113163059605426 9.701593402198373 0 0 0
373 4 -7.8136208767789626 21.52210549573574 7.98329549413646 0 0 0
370 4 -5.482877086393693 19.315193187886845 7.850290690862702 0 0 0
374 5 -6.116164067688455 21.117543486898597 6.168012747620285 0 0 0
375 6 -6.0362637743571455 20.951064144575476 9.547925424461225 0 0 0
403 4 22.65091232155904 1.0264678678862158 7.842461296577954 0 1 0
371 5 -3.6895425062044125 18.74365032030058 6.352600747340386 0 0 0
372 6 -3.608673118108814 18.8495790938989 9.643044349465223 0 0 0
367 4 -3.0924701067281775 16.94615106954178 8.050378098200065 0 0 0
405 6 24.50439688685266 0.611358989860677 9.590432232993802 0 1 0
400 4 -2.416124185079313 20.217182386247913 8.023538793599426 0 0 0
404 5 24.44949806444507 0.4062315515916153 6.196991566291122 0 1 0
335 5 -1.6352652154119547 13.160255722050282 6.429836744390213 0 0 0
336 6 -1.8372345510142145 13.141153800680085 9.735084827207281 0 0 0
361 4 2.008082656149578 12.362678560036201 8.187588095045367 0 0 0
391 4 5.112470710554881 13.642089523664675 8.308491841183608 0 0 0
242 2 -3.6185429488398912 19.663125212638697 -0.03563921356256675 0 -1 0
238 1 -2.9356076292789686 17.755306528326404 1.3339376265668905 0 -1 0
243 3 -3.121889690993551 19.63369846699125 3.024663584173257 0 -1 0
239 2 -1.0982222236437271 17.087951227789418 -0.15027780441583038 0 -1 0
266 1 0.0732479741045596 18.44985183522873 1.2762138665338423 0 -1 0
14 1 3.2698780730083588 19.270811039600407 1.2173575671907768 -1 -1 0
267 2 1.7182863317018986 17.994779706802856 -0.29091720940149035 0 -1 0
268 3 1.9563665500872935 18.048266480792154 2.8987099043693774 0 -1 0
210 2 -4.352580508216156 16.55782331846944 -0.05821268975014484 0 -1 0
206 1 -4.07601516176861 14.909224857836902 1.6057667830485034 0 -1 0
364 4 -0.3920616641303513 14.542449329251962 8.198720364984043 0 0 0
365 5 1.412795937072499 14.220997061853774 6.467966906572194 0 0 0
366 6 1.348412331544913 14.126613890463661 9.933484280406446 0 0 0
396 6 4.566583632079272 15.30646784628339 9.960776011616623 0 0 0
240 3 -1.2595861309936662 17.39769913032257 2.9124365713159777 0 -1 0
235 1 -0.7270200334214836 15.443310437638408 1.4841556460673302 0 -1 0
263 1 2.2722207720053427 16.244445418371996 1.263172265927855 0 -1 0
174 2 -3.2025417438854435 11.446633628127003 0.05373745593518994 0 -1 0
175 3 -3.3367407814802545 11.48756525566858 3.2850871792917373 0 -1 0
368 5 -1.1824816155964226 16.36051507107319 6.4099650823812935 0 0 0
369 6 -1.034657170366649 16.43383665134205 9.80755804779641 0 0 0
394 4 2.6800207246874064 15.649953982318348 8.199212138251182 0 0 0
395 5 4.357107794111565 15.347241696894061 6.586343760134906 0 0 0
207 2 -2.3854956285162654 14.421102351011394 0.1004406822970204 0 -1 0
208 3 -1.8703851619929543 14.51520832338429 3.4132271228784883 0 -1 0
232 1 1.3970965198009762 13.238601660383651 1.6789657526900046 0 -1 0
236 2 0.964961073187691 14.80006987375449 -0.11817628124091359 0 -1 0
237 3 1.1232354872169932 15.190522157147804 3.0665849156657954 0 -1 0
170 1 -2.819302614087509 9.657319518420797 1.718378342677937 0 -1 0
398 5 2.0185120713436286 17.429674699233743 6.462498420124315 0 0 0
203 1 -1.9191523426804125 12.708070821736868 1.7335879051738348 0 -1 0
205 3 -0.24453747419504349 12.008967138201822 3.222618123951273 0 -1 0