LAMMPS data file via write_data, version 27 Jun 2024, timestep = 2000, units = metal

540 atoms
6 atom types

0 37.59365801343109 xlo xhi
0 21.52779524830364 ylo yhi
-0.8107928971293888 10.150745657923286 zlo zhi
-27.49615054720427 0 0 xy xz yz

Masses

1 95.95
2 32.06
3 32.06
4 95.95
5 78.971
6 78.971

Atoms # atomic

285 5 -13.148695193305699 11.020391142575992 6.110296901257901 0 0 0
286 6 -13.058155399910035 10.853246464533056 9.662649482832942 0 0 0
18 2 -9.985922017040576 9.923094225523649 0.08539376760572735 0 0 0
14 1 -9.517070193778567 8.077577324377772 1.4436583865729258 0 0 0
12 2 -5.738540199721908 5.3304976544843825 -0.15831265939504632 0 0 0
13 3 -5.420555168213671 5.33321338328706 3.194928894081597 0 0 0
15 2 -7.561432034216843 7.88798218619907 -0.06705441636244792 0 0 0
16 3 -7.754379652600054 7.649952564269212 3.1480480737507706 0 0 0
37 1 -2.1635159401565893 4.224483045003677 1.1797405839089472 0 0 0
40 1 -4.260084001741938 6.562953517061885 1.4080676474855034 0 0 0
41 2 -2.498632645050232 6.126722817454377 -0.24145269324928786 0 0 0
42 3 -2.3245398416963554 5.908068466919378 2.8205226586877665 0 0 0
44 2 -4.801246955399754 8.088317706987619 -0.1409344538227054 0 0 0
45 3 -4.681737080369086 8.174932760197134 3.1502261087597003 0 0 0
283 5 -10.774100915481627 8.672164526934903 6.355543770056306 0 0 0
284 6 -10.661665801945622 8.811491672419018 9.454606618230942 0 0 0
307 4 -7.255686951109358 7.754424581580489 8.071417595931855 0 0 0
308 5 -5.3546873120158756 7.207122847856921 6.504846000727645 0 0 0
309 6 -5.523284490806852 7.37454786515035 9.92309290494626 0 0 0
310 4 -9.379164847441793 10.144398376066773 7.761482490763106 0 0 0
311 5 -7.588554962177213 9.404326668590597 6.378319803366391 0 0 0
312 6 -7.77524497711675 9.691446774741939 9.543682394211508 0 0 0
340 4 -6.520337445297991 11.012827888796322 7.964168742917438 0 0 0
304 4 -4.724339422335974 5.6133015887603275 8.285161088169106 0 0 0
341 5 -4.664825168989624 10.548763424851606 6.4393232761564 0 0 0
342 6 -4.716199501686264 10.655549031335251 9.584496124018724 0 0 0
533 5 31.648538819309064 3.9913457789087534 6.656717617521577 0 0 0
536 5 29.291741916462815 6.301099906497546 6.3974852253313 0 0 0
537 6 -8.383437343093506 6.569753280968312 9.799588514222922 1 0 0
19 3 -9.939820828790598 9.821939473634215 3.066652223310752 0 0 0
43 1 -6.368042394502171 8.948345807825557 1.5570783101387033 0 0 0
71 1 -3.275214422109574 9.384510770705255 1.3873180952655453 0 0 0
68 1 -1.014610807310995 7.21070354885158 1.2545705156541893 0 0 0
31 1 -25.49461871803906 20.95715562256116 1.291519869455275 0 -1 0
34 1 -0.05597931136375322 1.8849471079911584 1.2631238992145288 0 0 0
35 2 1.5458105269444071 1.0476653413433445 -0.3549014885293581 0 0 0
36 3 1.7684664001129322 1.480620048793495 2.6592784139223204 0 0 0
38 2 -0.6515124397071823 3.6963855131975856 -0.4124592324003557 0 0 0
39 3 -0.3265762418578343 3.5526500905817917 2.76934135950204 0 0 0
59 1 5.310784049665053 0.18983775325136967 0.9379451605325234 0 0 0
62 1 3.021354618117767 2.4140030293319743 1.0677427282596665 0 0 0
63 2 4.8997422437540274 1.90310343790644 -0.6518085928674981 0 0 0
64 3 4.865022058161781 2.047293026059024 2.5433690444666914 0 0 0
65 1 0.9146849878597528 4.811989297295071 1.0777349688139974 0 0 0
66 2 2.7016473893278006 4.244674456888498 -0.5140359790920872 0 0 0
67 3 2.6251742122763853 4.156795038929519 2.6755303319206014 0 0 0
69 2 0.6760632385616835 6.636477075364446 -0.38168280179342745 0 0 0
70 3 0.622826194190353 6.600263992066096 2.953714579481803 0 0 0
92 1 6.128812836675347 3.1500677755737683 0.7339334287495196 0 0 0
95 1 3.8896176751351854 5.489882597311162 1.01032593784686 0 0 0
96 2 5.715698260834607 5.126582120248569 -0.5470414747253941 0 0 0
97 3 5.930427754385584 5.014348741724364 2.4980297696507368 0 0 0
98 1 1.875423261031897 7.913047420469696 1.3397315768976634 0 0 0
99 2 3.4942187557312785 7.332035354622124 -0.36647029060222563 0 0 0
100 3 3.6780431029595073 7.271393950276055 2.754578256646573 0 0 0
128 1 5.049961755739867 8.309741364866195 1.1095042132516737 0 0 0
301 4 -2.3319715263495446 3.241697617827554 8.397078982013998 0 0 0
302 5 -0.4940408303137904 2.731688228355686 6.755996039656388 0 0 0
303 6 -0.6501953136124208 2.869233177656153 10.029249036485226 0 0 0
305 5 -2.929806271774527 5.116045350119251 6.777896938943326 0 0 0
306 6 -3.0365730253421326 5.332933279904555 9.965393665423788 0 0 0
328 4 3.1982097061471295 2.0299011658191177 8.427852450303385 0 0 0
331 4 0.7413142573245453 4.261978171421294 8.381411211839092 0 0 0
332 5 2.378002904298548 3.7163828511920123 6.691175761984929 0 0 0
333 6 2.7771285061331663 3.94299451581133 10.136351967999172 0 0 0
334 4 -1.8651220939951836 6.608636254736011 8.294172558377001 0 0 0
335 5 -0.16116388176694582 6.012950125650532 6.559746288363371 0 0 0
336 6 0.03341499949664954 6.254311328979412 9.94636606213619 0 0 0
337 4 -4.168972821867137 8.763380963867231 8.183111284881674 0 0 0
338 5 -2.365426260210635 8.432904033104942 6.615616033243863 0 0 0
339 6 -2.3324026105271765 8.457245218872401 9.977886117516746 0 0 0
364 4 1.3177733712261772 7.396154239949184 8.12712806331124 0 0 0
365 5 2.8239290965890587 7.012317819252515 6.338311980076253 0 0 0
366 6 3.0973161149273123 6.971378208665234 9.839454074082951 0 0 0
367 4 -0.9903048061686 9.72668742546309 8.181260666938584 0 0 0
368 5 0.6385393191435718 9.335968896668618 6.530106565662527 0 0 0
369 6 0.8408904941928776 9.20412013886792 9.702160231479153 0 0 0
397 4 1.9881498324886073 10.680027477177028 8.152426592892771 0 0 0
398 5 3.778269428437191 10.289427742107305 6.6185294864340545 0 0 0
298 4 0.04744296106134254 0.9995667543172697 8.456953631677482 0 1 0
299 5 1.8554180116158137 0.7355298737057269 6.695975698044368 0 1 0
300 6 1.9627635951752982 0.786420007476657 9.97280953162675 0 1 0
72 2 -1.6301632355772404 8.975639687693977 -0.298822809011605 0 0 0
73 3 -1.5189776954817302 8.82174572552554 2.9360922893862824 0 0 0
102 2 1.4786709715833857 9.655973215617982 -0.1996827778745474 0 0 0
103 3 1.62515751235425 9.697007317198246 2.8843830858654607 0 0 0
60 2 -20.42917723382306 21.159756680711915 -0.580690505770009 0 -1 0
61 3 -20.53396520370412 21.334426338176304 2.667625705662191 0 -1 0
125 1 7.2215443284187115 6.235679889477205 1.0321368875479107 0 0 0
129 2 6.6815396059786725 8.051316388295161 -0.550340623318191 0 0 0
130 3 6.849717333657587 7.736762687633762 2.7246857889667018 0 0 0
89 1 8.37709849156018 0.9091492430665024 0.8265999703314367 0 0 0
90 2 10.201708199675478 0.6130040603200039 -0.7481011204883133 0 0 0
91 3 10.185029562575032 0.37779383439190567 2.2690897749143266 0 0 0
93 2 7.880236845961042 2.634968679958845 -0.8007928971293888 0 0 0
94 3 7.732865700445587 2.5521096486043984 2.618141614966724 0 0 0
116 1 -13.909081675910135 20.970591796158857 0.9396333993114796 0 -1 0
119 1 11.42000802339133 1.5733658757145386 0.8324829349363488 0 0 0
120 2 13.287414709930673 1.205730525814793 -0.7078062297783612 0 0 0
121 3 13.162737487446556 1.1374118454894666 2.2923854945557185 0 0 0
122 1 9.250342550964298 3.872175218148694 0.9189929854223949 0 0 0
123 2 10.978186454943977 3.402134261686139 -0.6269085321511213 0 0 0
124 3 11.009822999675796 3.2765856987652255 2.6432957659163967 0 0 0
126 2 8.90292086002927 5.771878732822774 -0.5425547337652762 0 0 0
127 3 8.935980175684056 5.394022607607675 2.5527405742817986 0 0 0
146 1 14.765091335465364 2.3224863358499093 0.7952321389326513 0 0 0
149 1 12.3436894759388 4.445270749395128 0.9936628870295673 0 0 0
150 2 14.012765987287137 4.135242910361702 -0.7527629984623642 0 0 0
151 3 14.011280329457874 3.7771863037958 2.5215308932282685 0 0 0
152 1 10.25841229745525 6.7684635081705355 1.0863448641093538 0 0 0
153 2 11.911202607741977 6.376883466665896 -0.3039378861081675 0 0 0
154 3 11.879918504613169 6.1078838250983525 2.760704425662008 0 0 0
182 1 13.154468734268141 7.44894532785743 1.2783229413717496 0 0 0
329 5 4.851918912537213 1.5966566795153878 6.722039951864869 0 0 0
330 6 5.0042572336892075 1.5762706980021455 10.09469661556041 0 0 0
358 4 6.221223037522165 3.037817881147577 8.288418068696805 0 0 0
359 5 8.021400034016672 2.5624716541906536 6.613540635353086 0 0 0
360 6 8.257365258288289 2.681016584695914 9.868717187237825 0 0 0
361 4 3.7517771291842035 5.275636370280191 8.215584506006026 0 0 0
362 5 5.631302333789204 4.790533965703 6.457061572655808 0 0 0
363 6 5.59828548063609 4.934613011542808 9.913433374407067 0 0 0
388 4 9.418523798817226 4.160862958844872 8.029825921346685 0 0 0
389 5 11.486100059543384 3.7172600248848995 6.243261089273568 0 0 0
390 6 11.327534422003895 3.8102890773937275 9.69002246207814 0 0 0
391 4 6.884096855643576 6.316503598843217 8.12481605321997 0 0 0
392 5 8.625985031042411 5.996710324444134 6.405634891720187 0 0 0
393 6 8.836431311495598 6.009660438570127 9.74839376790979 0 0 0
394 4 4.337595628922869 8.423165977349512 8.212651050150324 0 0 0
395 5 6.1447816017817996 8.084542420352866 6.541196864689685 0 0 0
396 6 6.272243091837262 7.972707483149095 9.763822925095766 0 0 0
399 6 3.750773746971634 10.429705603428502 9.859267066611743 0 0 0
421 4 10.155369157656828 7.359330726890408 8.005959931130688 0 0 0
424 4 7.600680825106691 9.421136363325001 8.12115499530651 0 0 0
425 5 9.557387187249685 9.276722922645469 6.374607680780702 0 0 0
426 6 9.562331471866898 9.099370281978686 9.68176981289129 0 0 0
454 4 10.775165533388229 10.628774371904457 8.097840095801681 0 0 0
387 4 11.900503315178762 1.9308619830403084 8.125391874321464 0 0 0
422 5 12.177537353921169 7.083613354858533 6.33474706443205 0 0 0
423 6 12.089582906104528 7.069822812903256 9.657131506624557 0 0 0
355 4 8.759429204989766 0.8382330449633232 8.253370547688121 0 1 0
155 1 8.168702177118675 9.161794709945413 1.1561026119370705 0 0 0
156 2 10.001801915849555 8.892290708504342 -0.3215678407547862 0 0 0
157 3 9.984151479918417 8.36641355200639 2.8040204754737292 0 0 0
185 1 11.178496188353122 9.894773666664308 1.332433594525271 0 0 0
186 2 12.755070195756002 9.517680801342335 -0.46305368964145194 0 0 0
187 3 12.699347038410469 9.056776721964763 2.9043125015583837 0 0 0
179 1 15.287852303972764 5.276257250889382 1.0750070473991298 0 0 0
183 2 15.017743692426661 7.125462598788356 -0.254405825911803 0 0 0
184 3 14.775738405760613 6.605741744037972 2.9509051584152415 0 0 0
143 1 16.713508558485056 0.06890564831654503 0.8802819505739697 0 0 0
144 2 -8.898032965342262 21.04808226834185 -0.5495317827828972 0 -1 0
145 3 -9.111158638377526 21.288953046982268 2.5080105578867653 0 -1 0
147 2 16.60049925201108 1.8583534533395043 -0.7760774166708373 0 0 0
148 3 16.477778644432064 1.9271021523466645 2.5847830498843503 0 0 0
173 1 19.924633284756123 0.8355402682486074 0.9964753493525397 0 0 0
174 2 21.772541682419686 0.26212327374547106 -0.46797609949419905 0 0 0
175 3 21.36672655336081 0.23528013574567574 2.6520138127147512 0 0 0
176 1 17.796406086240182 3.1070409757654507 0.9993664067062302 0 0 0
177 2 19.58609689397695 2.4400389255308226 -0.6330497330419101 0 0 0
178 3 19.47839662140273 2.757702862602147 2.526235864865034 0 0 0
180 2 17.191460457336905 4.943290347754067 -0.538899466008844 0 0 0
181 3 17.292233652288335 4.805164201079271 2.4980533385310415 0 0 0
203 1 23.015162053893167 1.3300559946878125 1.1053768843499938 0 0 0
206 1 20.792102369956876 3.750229266646781 0.8894647750105281 0 0 0
207 2 22.741280934220786 3.0837576025083946 -0.519406150535806 0 0 0
208 3 22.36292826997839 3.138833707730069 2.5963074650464733 0 0 0
209 1 18.49874318508121 5.9296868825569025 1.077967764136059 0 0 0
210 2 20.46561290231829 5.561003414249452 -0.6210631147619581 0 0 0
211 3 20.487308445844953 5.235612664863799 2.5841185242900364 0 0 0
212 1 16.312366174695654 8.040694130867397 1.4393598293116354 0 0 0
213 2 18.10893159332492 7.689653972029066 -0.43167061083237535 0 0 0
214 3 18.186128361627414 7.560418746516641 2.7070057758957526 0 0 0
238 1 21.722233148308863 6.615949148992797 1.0763841952501476 0 0 0
242 2 21.313859251021007 8.290275991562646 -0.5762577590669554 0 0 0
243 3 21.09850223717845 8.376098139972726 2.7085629032489122 0 0 0
415 4 15.12176900376779 2.9839003544120035 7.930641232621455 0 0 0
416 5 16.731699622418947 2.47450123450942 6.337922858544568 0 0 0
417 6 16.91457309939324 2.5744054863387054 9.617268701790511 0 0 0
418 4 12.665344814332641 5.146314507101143 7.86832203364594 0 0 0
419 5 14.437803329194008 4.7886889616040245 6.300400864635887 0 0 0
420 6 14.526356585200597 4.724465572770073 9.595205711255705 0 0 0
445 4 17.99731614270542 3.857942508196888 7.892871635247549 0 0 0
448 4 15.753401007622148 6.125817080220936 7.968389985005171 0 0 0
449 5 17.534432870254093 5.794143442659867 6.350242903241466 0 0 0
450 6 17.61816461440782 5.6531775825179995 9.636318068394049 0 0 0
451 4 13.41675211116459 8.489206367815271 8.02954795121281 0 0 0
452 5 15.021700846790726 7.9620387254589815 6.2516829721555505 0 0 0
453 6 15.259036912957221 8.005386340732331 9.680716847620769 0 0 0
455 5 12.714717345441175 10.333398955443988 6.294958914918049 0 0 0
456 6 12.619372840576087 10.20046921068856 9.642324277227909 0 0 0
478 4 18.830467099751544 7.123182757329535 7.910159981828678 0 0 0
481 4 16.423251696821257 9.439820782830019 8.046667770975127 0 0 0
482 5 18.10882944449679 8.93961552387884 6.262856138863176 0 0 0
483 6 18.173726382357096 8.923154542791004 9.661686650452873 0 0 0
485 5 15.789847749940789 11.35543121188094 6.38496813912699 0 0 0
486 6 15.790685303590537 11.257130220768365 9.77727912130963 0 0 0
511 4 19.459448008713387 10.420913229924727 7.948447175271015 0 0 0
446 5 19.97175220627646 3.443865668214195 6.350185401840081 0 0 0
447 6 19.93145424475991 3.490386450918225 9.52738829815941 0 0 0
385 5 13.799436196467724 1.4525614116197743 6.39523181883853 0 1 0
386 6 13.898271257118601 1.5390811285561143 9.666209176266916 0 1 0
412 4 17.3101868185096 0.735079023563238 7.894240064281492 0 1 0
241 1 19.448901627974543 8.892871595409803 1.199778221581461 0 0 0
269 1 22.623297046531277 9.738686859957367 1.360398407239878 0 0 0
11 1 -7.168600871848938 5.847392888619581 1.6109719611283073 0 0 0
239 2 23.6904354025153 6.329512950525466 -0.5828204384301445 0 0 0
240 3 23.183046034805493 6.1040864218470565 2.914987447891344 0 0 0
204 2 25.184231945404438 0.7399836537194899 -0.3265012296345752 0 0 0
205 3 24.63083668249869 0.8336185444252259 2.7697074049449424 0 0 0
229 1 0.6345119422547713 21.248175187911077 1.4406479750686336 0 -1 0
232 1 26.246900285837 2.1596265219366813 1.2385591535224432 0 0 0
233 2 28.02970762932014 1.5422370137815158 -0.09016856789316412 0 0 0
234 3 27.82959690240957 1.6973208648900204 3.016740829286989 0 0 0
235 1 23.945105996477736 4.347773266034949 1.1743087270243935 0 0 0
236 2 25.810322863626016 3.872410804308531 -0.373496765933579 0 0 0
237 3 25.38261766301762 3.9244322075783433 2.7652705769112855 0 0 0
260 1 29.175606306762077 2.933238272971276 1.5031947852512242 0 0 0
261 2 30.89276908738434 2.263292964617415 -0.06584493904831637 0 0 0
262 3 30.892525350355832 2.212265879366854 3.0786879175194426 0 0 0
263 1 27.010956111324393 5.122328533652213 1.4683894925211238 0 0 0
264 2 28.861879310229362 4.693678750450943 -0.011789651590570143 0 0 0
265 3 28.792129223676977 4.617738849768401 3.1429635976421135 0 0 0
266 1 24.82256970204652 7.254849698094642 1.4598500499918257 0 0 0
267 2 26.673865573867026 6.727552465425863 -0.14603928976755648 0 0 0
268 3 26.578202345455406 6.834428555961192 3.0394856836329756 0 0 0
444 4 20.453216487763214 1.6515456235088188 7.923286709716901 0 0 0
472 4 23.590534437826914 2.628594389455377 7.927714598691493 0 0 0
473 5 25.57743105683536 2.261145529835155 6.450570018080427 0 0 0
474 6 25.335546420217327 2.048545269073272 9.699224341153808 0 0 0
475 4 21.292097162322833 4.990394008511477 7.81415116078821 0 0 0
476 5 23.07312443428246 4.551281272260222 6.17216387409219 0 0 0
477 6 23.057568878321373 4.494594613356726 9.495273607789287 0 0 0
479 5 20.68908069673154 6.908644730621634 6.1818072384216025 0 0 0
480 6 20.660252002137845 6.660458714540913 9.476354708922653 0 0 0
502 4 26.670629215818572 3.608188564648964 8.177403516461617 0 0 0
505 4 24.35262362241934 5.942452264085412 7.813854894389467 0 0 0
506 5 26.30876203541252 5.1720988895407265 6.294178548398961 0 0 0
507 6 26.065314310356943 5.49401658573539 9.716355111905267 0 0 0
508 4 21.994755808243497 8.271928579774784 7.84512114010816 0 0 0
509 5 23.686272072963114 7.822583207232749 6.088238791317896 0 0 0
510 6 23.74311630827438 7.702235753515803 9.54516889982119 0 0 0
512 5 21.268249696057453 10.029884904505138 6.156863150265328 0 0 0
513 6 21.371482849655823 9.844825149924402 9.514826109293491 0 0 0
535 4 27.356745202459848 6.770676772889885 7.987568794069721 0 0 0
538 4 24.94523084180251 9.1661918155001 7.831888918040578 0 0 0
442 5 22.328114863626386 1.2201488862425176 6.158527845092772 0 1 0
443 6 22.301509204754236 1.0604751395583565 9.579131612988315 0 1 0
270 2 24.38504372478913 9.14701281829955 -0.16933571687382518 0 0 0
271 3 24.340761823462756 9.13086565146974 2.9040823040320007 0 0 0
9 2 -3.570784259210208 3.130420475246213 -0.20579493971262616 0 0 0
10 3 -3.281452878401683 3.1851881858099347 3.020688388359386 0 0 0
257 1 31.31871229582174 0.41399636260174927 1.5312741643615362 0 0 0
258 2 33.115950999515434 0.07214897053784654 -0.19828362964148658 0 0 0
259 3 5.395311810338684 21.4679950069733 3.0728317271791545 0 -1 0
279 1 34.447308904486725 1.3198097503832786 1.4280496885778216 0 0 0
280 2 36.157757862300706 0.7174081571421576 -0.17522899905204553 0 0 0
281 3 36.355178502051295 0.8130750791424707 3.005068354330268 0 0 0
282 1 32.38977816476556 3.5595784685087595 1.6254734162585918 0 0 0
503 5 28.51542640089264 3.081518302875624 6.745969241586686 0 0 0
504 6 28.25623045022453 2.9359883443256853 10.023801298083827 0 0 0
529 4 32.317347909642514 2.2330404891993014 8.406963542335951 0 0 0
530 5 33.8668144108791 1.8732626619292705 6.606887556595853 0 0 0
531 6 34.10638618815372 1.7725357882166952 10.04383920210692 0 0 0
532 4 29.727864264244396 4.529749672260704 8.377263780394175 0 0 0
534 6 31.78937451556629 4.1843776734699265 9.994486903978505 0 0 0
499 4 29.19204731889103 1.2573573559877145 8.380777571226446 0 1 0
500 5 31.12953775640159 0.8443432509791199 6.777117879855717 0 1 0
501 6 30.924005028508123 0.8217097276441819 10.098304117404453 0 1 0
32 2 -23.801899659071456 20.464917389846146 -0.41840383252317903 0 -1 0
33 3 -23.517702682131798 20.805651966642174 2.6905781549125547 0 -1 0
58 1 -20.072730732058215 19.673406958406403 1.109750503936924 0 -1 0
5 3 -19.431464348798638 16.408311428950945 2.934858808365396 0 0 0
6 1 -23.159451028697305 18.938626308147565 1.437757645568472 0 0 0
7 2 -21.571417365117398 18.22163102441381 -0.25080364706277025 0 0 0
8 3 -21.33907179623188 18.628670440877737 2.8523737341586544 0 0 0
26 1 -18.03363677389032 17.37942510847592 1.196447593392728 0 0 0
29 2 -18.498911149683305 19.06444468040484 -0.5392498481440315 0 0 0
30 3 -18.23988827446192 19.416760236089132 2.5006524832809434 0 0 0
292 4 -22.384256618371786 18.151639267868926 8.355454885472295 0 0 0
295 4 -25.053642548162454 20.48054453687364 8.309805278345792 0 0 0
296 5 -23.129850329369976 19.860551208382137 6.729671665221136 0 0 0
297 6 -23.232578354960687 20.02534031962305 9.97844135356299 0 0 0
325 4 -21.908957551758384 21.36630776787217 8.331272963853058 0 0 0
293 5 -20.515117794594715 17.537411872623128 6.5307842410257795 0 0 0
294 6 -20.54317783659647 17.634692084944763 9.936633222015281 0 0 0
86 1 -17.0272958966508 20.35128319836365 0.7869806172196792 0 -1 0
87 2 -15.256723526728042 19.560918074255408 -0.6607419730004579 0 -1 0
88 3 -15.510761411860305 19.812721321584064 2.5277857930956587 0 -1 0
117 2 -12.322410817609551 20.321469929181195 -0.7543397445171791 0 -1 0
118 3 -12.163619390209996 20.48323108499257 2.364642715437684 0 -1 0
17 1 -11.78265378811808 10.351911945168307 1.4438516111478874 0 0 0
20 1 -14.054695280277507 12.645459335947436 1.3764141563052505 0 0 0
21 2 -12.133805094285583 12.121206242516964 -0.24371839063326012 0 0 0
22 3 -12.20845157979006 12.098778824178796 2.807105487283803 0 0 0
23 1 -16.155908791070157 15.024748555942551 1.4439516610560856 0 0 0
24 2 -14.42167107737509 14.508663312822767 -0.04975066919323687 0 0 0
25 3 -14.350151654331258 14.494553192806443 3.0338777820489238 0 0 0
27 2 -16.218251219617528 16.69342231471333 -0.3006316021902072 0 0 0
28 3 -16.373501737085224 16.96503344667634 2.6951914201364864 0 0 0
49 1 -10.987785954549238 13.385804988225331 1.3465756980133134 0 0 0
52 1 -13.104814523223652 15.698838546588494 1.4114499191559358 0 0 0
53 2 -11.251637008280692 15.14244049596118 -0.026126616451466196 0 0 0
54 3 -11.225273203686587 15.235641212642683 3.0227645323989774 0 0 0
55 1 -14.971715264995348 18.12233497560467 1.1703131962073279 0 0 0
56 2 -13.304815768967263 17.160738541287554 -0.3241162719042134 0 0 0
57 3 -13.396268259731361 17.562008958657138 2.9578600000322033 0 0 0
80 1 -9.798770391593541 16.334762687086187 1.5465459820054723 0 0 0
83 1 -12.150688594087885 18.659391123303465 1.1038189046854456 0 0 0
84 2 -10.143560222046812 17.982407311041605 -0.10841024679059637 0 0 0
85 3 -10.223485529072823 18.09726757227026 2.7858824776473736 0 0 0
287 5 -15.521255691881946 13.158433061946202 6.213807191425502 0 0 0
288 6 -15.502072330337823 13.229263485164479 9.57272913241146 0 0 0
290 5 -18.103987114588048 15.651143637770065 6.356870464438648 0 0 0
291 6 -17.880317319710517 15.426316089902603 9.80735075514174 0 0 0
316 4 -14.418301258145107 14.719300728236583 7.755064722202205 0 0 0
319 4 -16.766236715965547 16.9117065915808 8.018153565746626 0 0 0
320 5 -15.14763016437161 16.44399547820023 6.213559906976714 0 0 0
321 6 -14.851796598941215 16.48062716063797 9.528304054729984 0 0 0
322 4 -19.44446430859435 19.069331413007138 8.222831346582453 0 0 0
323 5 -17.469584395465613 18.690700630858377 6.390823902764746 0 0 0
324 6 -17.37049766762795 18.663336913528088 9.66959987173781 0 0 0
326 5 -20.03882574602759 21.038713696704693 6.543246159965253 0 0 0
327 6 -19.989694281032154 20.790410565213634 9.919302962555433 0 0 0
349 4 -13.647315918184471 17.952662422905128 7.8105330674522 0 0 0
352 4 -16.274155150456657 20.143161965603994 8.089587045964894 0 0 0
353 5 -14.549584954862949 19.616558264903766 6.316294390788407 0 0 0
354 6 -14.328287763223104 19.677359942938622 9.69024441069361 0 0 0
356 5 10.57776932000292 0.4265871706991267 6.427798410231969 0 1 0
357 6 10.7017618645046 0.46316137824397396 9.783860666369664 0 1 0
382 4 -13.177762431165492 21.180469053337056 8.01841707764958 0 0 0
317 5 -12.71198869284038 14.23695022991912 6.047402337140581 0 0 0
318 6 -12.528350391345535 14.247752801966318 9.377255917576846 0 0 0
289 4 -19.870255556207905 15.709965306425781 8.209631535632708 1 0 0
314 5 -10.139885683578088 12.004947414570664 6.135844647128533 0 0 0
315 6 -10.192336634813872 11.971245541498973 9.421146894016026 0 0 0
170 1 -5.513746824927999 20.08742445211172 1.310105572693126 0 -1 0
171 2 -3.84784341842129 19.239484933952674 -0.06420658050918653 0 -1 0
172 3 -3.7098057828409963 19.498721075917807 3.00494769327055 0 -1 0
200 1 -2.2348477705475034 20.627374312054922 1.2698009733166484 0 -1 0
50 2 -8.967008520279096 12.672174794603507 0.0032810009245157735 0 0 0
51 3 -8.667744256729163 12.797251676718572 3.2667918815273227 0 0 0
46 1 -8.530221391864963 11.079121569859138 1.6953014250311487 0 0 0
47 2 -6.962229660659678 10.723986669628655 0.0901365822887885 0 0 0
48 3 -6.582126722013153 10.638529235192015 3.219029987337394 0 0 0
74 1 -5.392733097433428 11.793405353319292 1.4680471065101526 0 0 0
75 2 -3.7036275754742665 11.167121077528186 -0.30644007397614176 0 0 0
76 3 -3.645312913872227 11.070400560039094 2.9694578573777455 0 0 0
77 1 -7.559351578773625 13.982481899115179 1.5923932618973546 0 0 0
78 2 -5.874473047170345 13.680484243340814 0.002323412849302005 0 0 0
79 3 -5.6203066336941445 13.580209847058832 3.013958932310476 0 0 0
81 2 -8.308148456228594 15.550855123787176 -0.15243868513658074 0 0 0
82 3 -7.856760817897365 15.783926034428033 2.9922763175592735 0 0 0
104 1 -2.3562718249306824 12.32771450763909 1.2366377726600069 0 0 0
107 1 -4.490579819532712 14.859441208731521 1.5934962967286432 0 0 0
108 2 -2.841963889118793 14.212616733438738 -0.19069166889064526 0 0 0
109 3 -2.637776694924904 14.107097827379805 2.9184412554432355 0 0 0
110 1 -6.590828604238954 17.009182245438346 1.3631806757755305 0 0 0
111 2 -4.768228165511142 16.53198486317345 0.0341874608603098 0 0 0
112 3 -4.948560157814561 16.699244368010454 3.1350836039626375 0 0 0
113 1 -8.606055265243596 19.379929553129998 1.3169313657880104 0 0 0
114 2 -6.959678731868419 18.93499110546317 -0.17459174921518014 0 0 0
115 3 -7.096742825395822 18.903329649839034 2.8656368475105065 0 0 0
140 1 -3.4938877620802002 17.665886407034034 1.502571095468289 0 0 0
141 2 -1.6855088287958324 17.194109200138076 -0.1504827285166803 0 0 0
142 3 -1.5382302992131138 17.116423545273314 2.9712216709735224 0 0 0
313 4 -11.9926038944193 12.324524914409363 7.80005379661497 0 0 0
343 4 -8.934864006616603 13.26434253329559 7.7081496127634495 0 0 0
344 5 -6.947485665851289 12.776498280945937 6.172738337173781 0 0 0
345 6 -7.153547694661828 12.918306059153343 9.583464715550235 0 0 0
346 4 -11.12622537955371 15.587859866142217 7.723767192437628 0 0 0
347 5 -9.322177548608275 15.117135397311023 6.109273341091287 0 0 0
348 6 -9.48740594151107 15.101659078353254 9.38715611648778 0 0 0
350 5 -11.653761264895666 17.55227705625156 6.096135501900896 0 0 0
351 6 -11.881507815874162 17.390876943468616 9.412698345532723 0 0 0
373 4 -5.8486634770285555 14.191075579800295 7.873407646336778 0 0 0
376 4 -8.088700174222936 16.564351407265512 7.845043437462205 0 0 0
377 5 -6.397654613381593 16.12055177260967 6.231904110261635 0 0 0
378 6 -6.403791540509807 16.109351642382528 9.45863472333116 0 0 0
379 4 -10.507460480921566 18.914968743552123 7.811748489439568 0 0 0
380 5 -8.721528884251464 18.328352092223987 6.036526443112596 0 0 0
381 6 -8.683957463270335 18.328943536123493 9.4728104066402 0 0 0
383 5 -11.410656300158422 20.838854350237536 6.389743194782621 0 0 0
384 6 -11.242977302886256 20.869193088515168 9.522661598593226 0 0 0
406 4 -5.181325415982478 17.553184834773027 7.761539403039415 0 0 0
409 4 -7.709103263348077 19.951184973403105 7.784980644064445 0 0 0
410 5 -5.783045247301932 19.390635644841687 6.148790771468465 0 0 0
411 6 -5.867063899850209 19.33952799740106 9.465704952294654 0 0 0
413 5 19.274485809986793 0.16706815274554856 6.105941672799727 0 1 0
414 6 19.383319729300716 0.40754496496029335 9.60993595470358 0 1 0
439 4 -4.505966457751751 20.88232552148524 7.7600472873713855 0 0 0
370 4 -3.3002722442546806 12.100523816297391 7.972116517953176 0 0 0
371 5 -1.5150908623348476 11.460649064153378 6.487934671682524 0 0 0
372 6 -1.7733601945460207 11.610992710211752 9.744739510586507 0 0 0
201 2 -0.3715072772108869 20.09647039866325 -0.21227001293839665 0 -1 0
202 3 -0.5438981698252809 20.035526024573976 3.0158050132972787 0 -1 0
230 2 2.5015117453084503 20.647443983748897 -0.08540010393390451 0 -1 0
231 3 2.3133894800027823 20.635554834182898 2.9277494901576406 0 -1 0
256 1 5.862512580686877 19.762869545885952 1.4047330258414412 0 -1 0
137 1 -1.2835512091673618 15.404628052639938 1.293733528003279 0 0 0
101 1 -0.2660952997837334 10.091222155288875 1.4398875755739735 0 0 0
105 2 -0.46960832256690077 12.039853978871747 -0.2994906502909836 0 0 0
106 3 -0.7050404219875979 11.855913884656715 2.7548786563644225 0 0 0
131 1 2.975522668985878 10.811419649830073 1.2415533873037918 0 0 0
132 2 4.74378629228485 10.363306708121744 -0.3986335130895971 0 0 0
133 3 4.754666094428318 10.361066722898896 2.767598742320702 0 0 0
134 1 0.7803336217159531 13.146297278277734 1.3066285836814344 0 0 0
135 2 2.49764145189209 12.509597442656476 -0.30214160261190226 0 0 0
136 3 2.5271031600671563 12.602616263802707 2.80836317184538 0 0 0
138 2 0.6451033039340507 14.915786938146828 -0.25139764943672077 0 0 0
139 3 0.4326519005613565 14.856657967475591 2.801452835838743 0 0 0
158 1 6.067029723765381 11.540258606629024 1.2735077809371815 0 0 0
161 1 3.8365171894226697 13.68773953228182 1.326080937692173 0 0 0
162 2 5.7272877461181375 13.288043429415202 -0.13111313672481223 0 0 0
163 3 5.63632428840632 13.21235812657413 2.766720167282318 0 0 0
164 1 2.07944746687061 16.17236556721668 1.4234211824154355 0 0 0
165 2 3.6395195279406556 15.559472173967288 -0.0579554541468286 0 0 0
166 3 3.621229746589836 15.503710122470078 3.02857326240219 0 0 0
167 1 -0.21842799837722254 18.308066873589855 1.4577231210827968 0 0 0
168 2 1.51347471403452 17.84082076406277 -0.21491414408068607 0 0 0
169 3 1.5407983684651791 17.902739020181336 2.817236899912832 0 0 0
194 1 4.883911481291209 16.803889868188044 1.4117833678740745 0 0 0
195 2 6.79248466884381 16.200788387534658 -0.13641884600900542 0 0 0
196 3 6.653538482286914 16.348455574704058 3.070887004521467 0 0 0
197 1 2.919897882118565 18.913366870069623 1.4433963655974498 0 0 0
198 2 4.699163823220779 18.390550366937997 -0.303799679798235 0 0 0
199 3 4.904658139452838 18.50149366295758 3.071932433252928 0 0 0
374 5 -3.894708527010298 13.773799300359146 6.235741700251426 0 0 0
375 6 -3.9958347378122907 14.088675263954585 9.659148257529376 0 0 0
400 4 -0.38365857962370453 13.039653656382956 8.098874025679363 0 0 0
401 5 1.4973970872726612 12.680536998172645 6.459926185113303 0 0 0
402 6 1.330060577524343 12.42358635246166 9.775056737907205 0 0 0
403 4 -2.803211487989628 15.536516629929118 8.039950526540649 0 0 0
404 5 -0.9718566405376937 14.844825357177676 6.406354799956519 0 0 0
405 6 -0.9744612763072412 14.919611581683077 9.833769323607626 0 0 0
407 5 -3.2414939962589218 17.027885477425627 6.162271077102807 0 0 0
408 6 -3.2759024960509207 17.408103166242704 9.527918301266245 0 0 0
430 4 2.703939490443009 13.908709466051839 8.256144092571006 0 0 0