LAMMPS data file via write_data, version 27 Jun 2024, timestep = 6000, units = metal

540 atoms
6 atom types

0 37.59365801343109 xlo xhi
0 21.52779524830364 ylo yhi
-0.69866705191661 9.947977485766947 zlo zhi
-27.49615054720427 0 0 xy xz yz

Masses

1 95.95
2 32.06
3 32.06
4 95.95
5 78.971
6 78.971

Atoms # atomic

535 4 -12.538586799066438 10.938193276741707 8.031305119834878 1 0 0
24 2 26.55812769447763 8.45482506883607 -0.08560621154168858 -1 0 0
25 3 26.69823187721576 8.296520113957309 2.875819597000313 -1 0 0
20 1 26.981258842905714 6.651771717780946 1.4422366207895412 -1 0 0
18 2 30.7639965054545 3.828659754006746 -0.15748117875713152 -1 0 0
307 4 -9.36924684373909 11.943428087077523 7.903480091071099 0 0 0
308 5 -7.733357834255365 11.533739313632042 6.21953656436923 0 0 0
309 6 -7.6598527615057765 11.791763642939602 9.601605602690714 0 0 0
304 4 -6.968550148017654 9.80798696042246 7.949763655328886 0 0 0
19 3 30.87742339249618 3.8718553412083505 3.0251851948731576 -1 0 0
43 1 34.335481508894674 2.485592470748427 1.149836996577316 -1 0 0
47 2 -3.657979406911378 4.408375074626706 -0.3174418394720232 0 0 0
48 3 -3.58192514482512 4.484990560252654 2.6172768195784184 0 0 0
305 5 -4.89816654195376 9.323915109616374 6.350707230295708 0 0 0
306 6 -5.25789699236388 9.475882173256764 9.6668344874714 0 0 0
46 1 -5.361086192002721 4.998627737699296 1.2858556377959058 0 0 0
301 4 -4.43913042701544 7.647899071519048 8.167556472699543 0 0 0
334 4 -3.795536574075372 10.797055346459066 7.985209646128565 0 0 0
536 5 -10.861455140270731 10.591393702276838 6.224563955017737 1 0 0
22 3 28.8292442266387 5.995641255520478 3.0192081436843154 -1 0 0
21 2 28.592002238230975 6.290251769966363 -0.06734887142970059 -1 0 0
537 6 -10.589108849291986 10.438091196931596 9.68277379008477 1 0 0
533 5 -7.9251257121046566 8.228226580666561 6.254017138562983 1 0 0
530 5 -5.634699585111921 6.24799369624034 6.4625072851266445 1 0 0
531 6 -5.531572145634032 6.284224723700225 9.935515258384273 1 0 0
534 6 -8.07965135619603 8.258533724357546 9.623087110159505 1 0 0
49 1 -7.299553711307376 7.183041949192702 1.4272586710205013 0 0 0
50 2 -5.6606945764209415 6.7371899078114525 -0.32804910999434433 0 0 0
51 3 -5.502364326754787 6.875746742738617 2.9669631841098756 0 0 0
77 1 -4.316023706549841 8.053865326551362 1.2056103241802498 0 0 0
78 2 -2.5695370305280423 7.418748987801209 -0.42215004756268026 0 0 0
79 3 -2.8330148098975934 7.429360788879808 2.7881023120698845 0 0 0
74 1 -2.2882864913551186 5.667257279815215 1.1475507062944057 0 0 0
40 1 36.54741727341905 0.3371623292232432 1.3131048662534652 -1 0 0
44 2 -1.724501192089783 1.7127235720851919 -0.5015113088648459 0 0 0
45 3 -1.608960820311765 2.2249534799571187 2.783974400409448 0 0 0
71 1 -0.233964847190807 3.2371437801261314 0.9075542144596014 0 0 0
37 1 11.014612564471998 19.419304201363367 1.4941361032698626 -1 -1 0
41 2 10.633806301916254 21.084707704130807 -0.30057582331309746 -1 -1 0
42 3 -26.922490304503658 21.51840823810464 2.774819436780958 0 -1 0
68 1 1.9921429310653218 0.9710748920608521 1.195515151238892 0 0 0
65 1 -23.497759561215624 20.15792495213332 1.481550520652334 0 -1 0
69 2 3.897353818831454 0.2209319110045152 -0.38495357283308007 0 0 0
70 3 3.766067984933975 0.5539460050128021 3.000451539059384 0 0 0
98 1 5.130192577341491 1.6510168674284456 1.1297011018341807 0 0 0
302 5 -2.64396832640889 7.207763293947136 6.560697517208301 0 0 0
303 6 -2.7185526860252933 7.28609702655965 9.780951702664272 0 0 0
328 4 1.1261710205448003 6.44621458924843 8.05369028623366 0 0 0
331 4 -1.4233520510682527 8.659290248061733 8.08775463294577 0 0 0
332 5 0.5514190262348928 8.29011369462958 6.404529868461387 0 0 0
333 6 0.4632499418408767 8.181484979978972 9.699677584691086 0 0 0
335 5 -2.12915087700063 10.458233166623868 6.3294669781044 0 0 0
336 6 -1.8536885841858688 10.414634613703836 9.660769756320631 0 0 0
364 4 -0.8381218046653577 11.823980497259104 7.946927106451282 0 0 0
365 5 1.18768333006757 11.45050605721665 6.343825100904944 0 0 0
366 6 1.252309775960082 11.653744821969392 9.576444007451634 0 0 0
298 4 -2.073237765133277 5.497402689157602 8.150566450918667 0 1 0
299 5 -0.2735743032950347 5.172418731571827 6.409858015274145 0 1 0
300 6 0.05123832493758135 4.924305629663919 9.582028065885389 0 1 0
72 2 1.5411070025054885 2.6817731272317094 -0.49602858237014374 0 0 0
73 3 1.628677966357913 2.8132489888108934 2.7474967387344367 0 0 0
102 2 4.506933790247437 3.403261192533329 -0.5445917678702114 0 0 0
103 3 4.591318384076409 3.3442862298935645 2.685111434698746 0 0 0
361 4 1.729601293068417 9.714633207180508 7.944202772761026 0 0 0
101 1 2.9436143296615587 3.962528447585821 1.0553254747631826 0 0 0
329 5 2.8470155594671698 5.953286696184228 6.301537118761106 0 0 0
330 6 3.023477221152481 6.043142324927724 9.557743665250289 0 0 0
363 6 3.55387228169191 9.152348714251945 9.494603056125628 0 0 0
325 4 3.525080233984116 4.11880150473069 7.950944939964332 0 1 0
75 2 -0.44736259114528354 5.046063867693751 -0.68866705191661 0 0 0
76 3 -0.5452720106885617 5.176320530359165 2.65038917356424 0 0 0
358 4 4.266773375836667 7.362954280969358 7.925535777791259 0 0 0
362 5 3.628320039738635 9.229710353129692 6.222715466388563 0 0 0
396 6 4.251291912147707 12.646751024551032 9.666617083942784 0 0 0
104 1 0.8066895355005947 6.259794020818415 0.9939441943500938 0 0 0
105 2 2.7318306278322555 5.759931778207704 -0.5213613266929921 0 0 0
106 3 2.4545363034671195 5.5952292518861375 2.7237874215871773 0 0 0
391 4 4.948913732979791 10.758115694366106 8.034690191944453 0 0 0
528 6 -3.2438680826747004 3.9624942397549447 9.67865054854693 1 1 0
295 4 0.42968018439545436 3.208802495313365 7.896547421443539 0 1 0
296 5 2.210945120908859 2.671031836563274 6.328156212663598 0 1 0
297 6 2.155418856669317 2.5647352130399086 9.558622704721813 0 1 0
107 1 -1.3134369532685215 8.689466107691496 1.2247911588109561 0 0 0
108 2 0.34235884489683677 7.997252367486649 -0.452238896501006 0 0 0
109 3 0.39984265166880584 8.089587739935883 2.6421139762134427 0 0 0
134 1 4.0455335937619905 6.947402296748272 1.0428036994904875 0 0 0
138 2 3.715674997306879 8.819883179659536 -0.4775908246864706 0 0 0
139 3 3.5569875302847263 8.502524151777386 2.6880257938641043 0 0 0
67 3 -21.827619143088388 19.92820516712132 3.3197760920868036 0 -1 0
135 2 5.729492365933088 6.334763638087118 -0.36888028490089814 0 0 0
95 1 -20.446310816458414 20.963029741001808 1.5289228713334322 0 -1 0
99 2 6.904810997714202 1.0206061420882324 -0.23826852165419787 0 0 0
100 3 6.82246891240026 1.2239251095751476 2.816607272433279 0 0 0
131 1 6.03537398085515 4.601748051797727 1.0938752639580218 0 0 0
132 2 8.110544164618487 4.133709727086854 -0.17534161056862232 0 0 0
133 3 7.669306714339838 4.298627076381047 2.8629759248926905 0 0 0
96 2 -18.511840798949933 20.399951183432915 0.1835100012614877 0 -1 0
97 3 -18.564567750364347 20.42780166031357 3.263534258003411 0 -1 0
128 1 8.237670834323184 2.454277457534905 1.321790485214041 0 0 0
125 1 10.34611652154938 0.05620689931906371 1.7934209686519789 0 0 0
129 2 10.052079942416055 1.744600273368886 -0.07827757355262611 0 0 0
130 3 9.965032601447732 1.893996113516692 3.2073547725713962 0 0 0
122 1 -14.896027545628167 19.189763670869077 1.656767366377973 0 -1 0
126 2 -15.304233733877844 20.966146986978316 0.0864750856726078 0 -1 0
127 3 -15.483170784773641 20.873060069223186 3.2995072427782492 0 -1 0
152 1 13.334462366053824 0.6994172592934834 1.767660735831433 0 0 0
359 5 6.172303201154625 6.7406460541388205 6.3613239397400205 0 0 0
360 6 5.935248379754499 6.921691200442334 9.68715747920966 0 0 0
388 4 7.304677295658097 8.346931286881606 8.101713487830546 0 0 0
389 5 9.159550367510526 7.9120974383516245 6.43947291064125 0 0 0
390 6 9.186636375276688 8.022435574672965 9.723990349090762 0 0 0
392 5 6.7406620796252765 10.063453439692653 6.298572718321865 0 0 0
393 6 6.638117164164351 10.261627260879845 9.68576870133366 0 0 0
421 4 7.953035728956929 11.600524728344409 8.004228557630984 0 0 0
387 4 9.733246851178084 6.086123288631827 8.075841745286327 0 0 0
422 5 9.86211094441684 10.970662843060119 6.3262429613149145 0 0 0
423 6 9.566857436721806 11.235690467797278 9.623711069533515 0 0 0
355 4 6.736569338546108 5.1701343532864 8.10521311159502 0 1 0
155 1 11.282860955594792 3.0431721300059555 1.5779205164590304 0 0 0
156 2 13.072466607773107 2.1594793491766704 0.08073811771659178 0 0 0
157 3 12.970948448853015 2.736336261344234 3.233475672388373 0 0 0
418 4 10.412058599085988 9.346522172346017 8.05378750685334 0 0 0
356 5 8.561498523735757 4.413466105262907 6.421793621308079 0 1 0
357 6 8.494405422374912 4.699638912762484 9.741003645955585 0 1 0
385 5 11.457594627731966 5.480892784007735 6.561640620507421 0 1 0
386 6 11.495717961742265 5.843978745151755 9.880257954984597 0 1 0
326 5 5.330888587854396 3.6437044386231303 6.323263389606399 0 1 0
158 1 9.372974646185623 5.314970388273725 1.4687776745726993 0 0 0
159 2 10.987633583180372 4.755217162891533 -0.20051198115883692 0 0 0
160 3 11.10476214737144 4.790514347858649 3.0831153107509164 0 0 0
419 5 12.215298707000324 8.822891076679246 6.406932684686571 0 0 0
420 6 12.410751012573353 8.978293428986577 9.692304462264763 0 0 0
382 4 12.002826369114706 3.7821211729118467 8.270943616535108 0 1 0
327 6 5.414111208795371 3.5858872455218003 9.641045051239821 0 1 0
188 1 12.375869984152867 5.9696466340445 1.4927516635564748 0 0 0
415 4 12.813213094394756 7.095382631271879 8.137342654270803 0 0 0
452 5 12.943378059209236 12.23152320952921 6.449859916117197 0 0 0
453 6 12.810632081809876 12.079267699113236 9.643947123174605 0 0 0
322 4 5.830208037149307 1.7900952425225372 7.918292673378939 0 1 0
352 4 8.904151280084871 2.690960910789758 8.152014165832083 0 1 0
353 5 10.888754734420063 2.303966556464379 6.523166072780399 0 1 0
354 6 10.73795586383225 2.258490088437946 9.937977485766947 0 1 0
136 3 5.721391823863621 6.2538537917789325 2.765338190384033 0 0 0
161 1 7.161995260508019 7.533365531052915 1.3831525413926622 0 0 0
162 2 8.974920662072263 7.055205737187065 -0.1226581548848373 0 0 0
163 3 9.167116840274087 7.0432370702944604 2.9944409049589593 0 0 0
191 1 10.359144105337217 8.195345546827427 1.476834390496333 0 0 0
192 2 12.164328782942318 7.833862319664537 -0.038460288632902725 0 0 0
193 3 12.167098539531503 7.868298755914015 3.0608618055345347 0 0 0
189 2 14.181317014209094 5.426670588416996 -0.022927854093473213 0 0 0
190 3 14.161571467593626 5.373669303170949 3.113731679579051 0 0 0
153 2 15.233222251927263 0.3193637536288343 0.06678933947338243 0 0 0
154 3 14.991228234374434 0.38111419125214174 3.2062988216695 0 0 0
185 1 14.313281268328696 3.5493548241135446 1.4950243579530862 0 0 0
149 1 -11.9611846825748 20.09461043090898 1.591208715630989 0 -1 0
186 2 16.38931700690042 3.423069711036318 -0.07675079908452975 0 0 0
187 3 16.104881330520445 3.1575255060305008 3.1605664206952513 0 0 0
150 2 -10.220746993087563 19.729066649307928 -0.07984136245781556 0 -1 0
151 3 -10.24422473515098 19.442749543820355 3.136662028317107 0 -1 0
182 1 16.475498446289603 1.639398299922433 1.5799229064727056 0 0 0
179 1 -8.745608989671355 20.787711181894988 1.4274221264876379 0 -1 0
183 2 18.204196300442828 1.1526299452968178 -0.10099277757448369 0 0 0
184 3 18.34593828550652 0.9874689139464772 3.0102620948448404 0 0 0
180 2 -7.034239870862061 20.436020196430626 -0.27273757132343285 0 -1 0
181 3 -6.7096049698484315 20.490902518446227 2.921807434222274 0 -1 0
212 1 19.760913191080505 2.107645580042438 1.4155307280945477 0 0 0
213 2 21.670827162379187 1.8072020584881778 -0.17178340478447152 0 0 0
214 3 22.566411917824503 4.544485249092019 2.9726399309321163 0 0 0
416 5 14.366486609568032 6.593665071827243 6.461893958395261 0 0 0
417 6 14.628484478328234 6.485645960097868 9.707926801281234 0 0 0
445 4 15.892454933647747 7.95701141659067 8.02379911530339 0 0 0
448 4 13.497505561682786 10.398626927422729 8.000369221172006 0 0 0
449 5 15.177603414173873 9.820739332976823 6.43208182424073 0 0 0
450 6 15.257731303855989 9.874247512107202 9.751429276489457 0 0 0
478 4 16.411265896533198 11.28065758632159 8.054226766119042 0 0 0
446 5 17.72182175263976 7.389772612841653 6.43828073162314 0 0 0
447 6 17.70579171064744 7.314664454609261 9.680898966203696 0 0 0
412 4 15.042241804971582 4.736268387341794 8.06771531500315 0 1 0
444 4 18.26581517658687 5.533019313423783 8.066617725303802 0 0 0
475 4 18.996607567761277 8.814895868562747 8.127286850029096 0 0 0
479 5 18.257021663212203 10.554892048151695 6.42153675891255 0 0 0
480 6 18.35866672335581 10.715246998881007 9.845389957004492 0 0 0
413 5 16.9409558389365 4.136623952791658 6.381713651623656 0 1 0
414 6 16.982047912958897 4.153914064252912 9.609621740131962 0 1 0
215 1 17.737112845935076 4.362165990175072 1.5682645944335094 0 0 0
216 2 19.588315563222913 4.04099656086724 -0.13956801202775085 0 0 0
217 3 19.41773815956716 3.7491951097348934 3.053002917749228 0 0 0
244 1 20.907909624779382 4.986389451582581 1.473502542827453 0 0 0
442 5 20.061252265129394 5.256052532417131 6.367398145988242 0 1 0
443 6 20.222954391483594 5.069642751023482 9.733700188612719 0 1 0
384 6 13.841200001619033 3.5057042700255745 9.859000854591118 0 1 0
383 5 13.791622766081488 3.2368540602982128 6.4417760980430465 0 1 0
219 2 17.396094911621642 6.003460917612402 0.20383254892146183 0 0 0
220 3 17.450281519914277 6.103321994788547 3.246560078298844 0 0 0
476 5 20.89091972626179 8.601091503856786 6.371769326460133 0 0 0
477 6 20.75616254508704 8.34811937565552 9.716638798921764 0 0 0
439 4 20.7897210600019 3.3975019405341613 7.988347691792577 0 1 0
379 4 14.454447166823218 1.538010761623754 8.106330775055811 0 1 0
409 4 17.58069216351221 2.28782230238679 8.102043868060274 0 1 0
410 5 19.49301335796295 1.9451669410002752 6.345234469182756 0 1 0
411 6 19.404127589769395 1.9236137825272703 9.760674676814883 0 1 0
223 3 15.156239450618626 8.45397481385801 3.1936374537819483 0 0 0
218 1 15.603997615885138 6.72169746901355 1.658365411007297 0 0 0
247 1 18.770179857572497 7.1906332987158565 1.7190636019729455 0 0 0
248 2 20.309169076173877 6.852135323415772 0.08093828591372729 0 0 0
249 3 20.39688050213878 6.542689965187525 3.155963551582927 0 0 0
17 1 29.07929862687162 4.364166525913156 1.384218763389061 -1 0 0
209 1 21.891329624397247 0.09032459221248612 1.3392638292794792 0 0 0
241 1 23.119023129084045 2.7750956726398175 1.4633378805756445 0 0 0
245 2 22.593255372555397 4.618134602757113 -0.10567255105030272 0 0 0
246 3 22.815445870733264 4.315705033551263 3.1139054252897074 0 0 0
210 2 -3.880785713804321 20.871378293331595 -0.14639940796152895 0 -1 0
211 3 -3.8355425991695378 21.15579313616066 3.030911607461432 0 -1 0
242 2 24.62759737643431 2.3737864890520153 -0.14994111857639525 0 0 0
238 1 25.111391806682057 0.5460772644596634 1.4539316387956451 0 0 0
243 3 24.895115480841742 2.2011998873362546 3.017932989539878 0 0 0
269 1 26.051134914895773 3.5215796958146974 1.3239650385124442 0 0 0
239 2 -0.7174700027671898 21.21810855876454 -0.23809439798654963 0 -1 0
240 3 -0.6251123201250947 21.48188931218287 2.8279071705655223 0 -1 0
235 1 -0.29894058694062753 19.81716255992627 1.333485588454395 0 -1 0
266 1 28.03299723956781 1.1514486558570256 1.3266908103154593 0 0 0
472 4 21.295210539146705 6.639042705125918 7.9650987937461775 0 0 0
473 5 23.25878474626559 6.271480760185745 6.341838404766809 0 0 0
474 6 23.00667777960656 6.2263124161332675 9.675715918606686 0 0 0
502 4 24.421165245674302 7.718868769209251 8.07144774479347 0 0 0
505 4 22.03394015639273 9.957243334275475 8.216165916798985 0 0 0
506 5 23.773531137855052 9.606810306271642 6.383280686279997 0 0 0
507 6 23.93393509421498 9.371163719468298 9.77462344727242 0 0 0
509 5 21.245730493448335 11.612118194944891 6.546429907772519 0 0 0
510 6 21.364796044475593 11.792963330708382 9.819365151333901 0 0 0
270 2 27.773641853651817 2.880550918954523 -0.21092781538383198 0 0 0
271 3 27.91084561334801 2.97081639718837 2.860370949153112 0 0 0
503 5 26.30137273057652 7.260572387362344 6.371999865445346 0 0 0
504 6 26.209577799430193 7.2782356107906185 9.583311684492548 0 0 0
499 4 26.935015364399977 5.509933986791588 7.950919410407858 0 1 0
469 4 23.820780335453335 4.550686840334122 8.034634289030967 0 1 0
532 4 -10.018674733291844 8.683077790580576 7.915853353567861 1 0 0
470 5 25.660213265982215 4.05287387789329 6.194497215953659 0 1 0
471 6 25.72115850117991 4.151684133268824 9.775783119449574 0 1 0
273 2 25.667462420302574 5.402391657594516 -0.380734961935363 0 0 0
274 3 25.840227984592843 5.313731874690811 2.9567618933503224 0 0 0
440 5 22.61199024159137 3.1469937524610456 6.435859208571922 0 1 0
441 6 22.637172229978383 3.024489352867398 9.657547019531952 0 1 0
272 1 23.902961831056466 5.805959026387916 1.4424039641065876 0 0 0
500 5 28.77137343608464 5.2424866728599735 6.389800164711809 0 1 0
501 6 28.851804986180188 5.233090397912693 9.719953293906554 0 1 0
466 4 26.26609684707467 2.325534192591293 8.043731929040916 0 1 0
467 5 28.04114732008388 1.984340113380586 6.229604383872331 0 1 0
468 6 28.107629722824328 1.7935831716787998 9.63448009087586 0 1 0
275 1 21.696445378792443 8.107635793488155 1.524726739009897 0 0 0
1 2 23.365807865631158 7.591270845384286 0.007455432816980881 -1 0 0
2 3 23.50905157412687 7.5962776093335505 3.0190271475995254 -1 0 0
14 1 31.22064302550344 2.0554316961791352 1.3243423104787935 -1 0 0
12 2 7.393727963138763 20.624822786649435 -0.13347546893138973 -1 -1 0
13 3 7.860310947093216 20.784218237238562 3.0867545433105184 -1 -1 0
15 2 32.774527306850814 1.463385367272433 -0.23312845392506407 -1 0 0
16 3 32.82073338283681 1.5119521792599337 2.9062734700487702 -1 0 0
263 1 2.829751985870056 20.567742996603062 1.3051154960875708 0 -1 0
267 2 29.71928073966055 0.831937095948788 -0.19372757674070942 0 0 0
268 3 29.97856106069056 0.723343210813428 2.8003480145813775 0 0 0
11 1 5.871504797084925 21.170013559682967 1.5146159928404868 -1 -1 0
264 2 4.71834654929572 19.977802237548612 -0.24466273641165545 0 -1 0
265 3 4.467137604523394 20.020404063967195 3.0050760570643202 0 -1 0
529 4 -7.509128800617954 6.604835176036765 8.06967311550758 1 0 0
526 4 -5.077524784183788 4.520571939950833 8.060650171194922 1 1 0
496 4 29.325496188149316 3.2765163228270717 8.032452686598187 0 1 0
527 5 -3.2353350721903857 4.127664501322301 6.382008665943961 1 1 0
497 5 31.156739681482673 3.1293629337344266 6.408315202792244 0 1 0
498 6 31.23091385947424 2.9225569359106993 9.651931359022191 0 1 0
523 4 -2.693881266605387 2.2345587320651523 7.947928973185855 1 1 0
524 5 -0.853175208063048 1.6721429685068463 6.372649075205707 1 1 0
525 6 -0.7240124201874388 1.7435715490465138 9.57159418832334 1 1 0
38 2 12.811370751664459 18.715189626676974 -0.07125575869544298 -1 -1 0
39 3 12.60396530063262 18.820005708700688 3.1255066443092714 -1 -1 0
66 2 -21.68276989664303 19.425169657777406 -0.12854623516594973 0 -1 0
62 1 -21.30706940393507 18.085370844093546 1.8650324476518636 0 -1 0
63 2 -19.55266315059638 17.36304122314543 0.35946591317981064 0 -1 0
64 3 -19.835399942214604 17.567722091387857 3.5590674656379133 0 -1 0
35 2 14.96915305845139 16.56387856726962 0.22524111474307068 -1 -1 0
36 3 14.813919774226965 16.829800463982576 3.3462016990693204 -1 -1 0
59 1 -19.28854771638564 15.596269946946583 1.9459611952594158 0 -1 0
32 2 16.944321439069245 14.276280125845446 0.3999630443627906 -1 -1 0
33 3 17.144489495288813 14.250890869516418 3.510629363425376 -1 -1 0
292 4 2.7384350639582817 0.7982325862638066 7.920786315644374 0 1 0
293 5 4.6168405032173405 0.4070139348987944 6.339873142007384 0 1 0
294 6 4.489351493448904 0.5183272943250155 9.756692988748153 0 1 0
289 4 -22.26243203160869 20.182905885069943 8.112847489134252 1 0 0
291 6 -20.68667130467892 19.54730371234332 9.783052807001 0 0 0
290 5 -20.32069510841522 19.69444732673457 6.367012695529512 0 0 0
283 5 -13.202775899656688 12.847808344752945 6.472949248517676 0 0 0
284 6 -13.014660317323763 12.582113607488001 9.717530071064921 0 0 0
92 1 -18.04714404210885 18.519911888497205 1.812370493372287 0 -1 0
93 2 -16.22616874538476 18.11724616243697 0.056859628342040294 0 -1 0
94 3 -16.214406184190675 17.943331069025234 3.2455958034480914 0 -1 0
124 3 -13.226012738127212 18.80119626167263 3.2365928942233344 0 -1 0
123 2 -13.077717630705294 18.729660217753985 -0.032780945613032915 0 -1 0
538 4 -14.88709218339012 13.18659325016401 8.086278958273185 1 0 0
89 1 -15.967715981245352 16.037010517108257 1.5175891827209607 0 -1 0
119 1 -12.589115209438795 17.030768038606247 1.5703738124130453 0 -1 0
120 2 -10.8997180799044 16.657737340823683 -0.08922648877114368 0 -1 0
121 3 -10.904592295266546 16.635802127422608 3.2562074063156183 0 -1 0
60 2 -17.759192382691907 15.194639055319678 0.04326164183746746 0 -1 0
61 3 -17.14006940225266 15.066130578737786 3.231777755858943 0 -1 0
90 2 -14.136201067234031 15.86644788499415 -0.15508247657354082 0 -1 0
91 3 -14.075575344525625 15.80504305817165 3.056725926605187 0 -1 0
58 1 -17.0606996260415 13.450186258263782 1.696436898540233 0 -1 0
285 5 -15.35498239615846 14.981211332182898 6.4438244110640825 0 0 0
286 6 -15.31312495369947 14.931187458755636 9.752948278660547 0 0 0
116 1 -10.700641346618287 14.907498389389808 1.5853125407667548 0 -1 0
26 1 22.676706938182583 11.239377683420383 1.5230276849975342 -1 0 0
29 2 -15.466779777818433 13.026263290024017 -0.0920192890836884 0 0 0
30 3 -15.329921289193555 12.989748854546248 3.1895515548627875 0 0 0
86 1 -13.936420593831187 14.016421662588334 1.5876930988507505 0 -1 0
87 2 -12.167864533338939 13.606961554268132 0.09985771823350732 0 -1 0
88 3 -12.239194337982724 13.797080652645556 3.170691911134317 0 -1 0
23 1 24.819387331937197 8.964413144893554 1.3996548928030554 -1 0 0
27 2 -13.33951297071334 10.847381040164873 -0.19913990741449983 0 0 0
28 3 -13.091410026003443 10.891386122026494 3.207341573153217 0 0 0
55 1 -11.696403249970633 11.902662812904232 1.4731654766052378 0 0 0
287 5 -18.10985762655426 17.372151471581248 6.43683474394001 0 0 0
288 6 -17.983084177234133 17.349175743873403 9.734538519964657 0 0 0
316 4 -16.85163508466926 18.696132283048165 8.06909417922728 0 0 0
319 4 -19.24359252546486 20.984085247368608 8.149182215749562 0 0 0
320 5 -17.3120459167616 20.448790456283795 6.474226219230435 0 0 0
321 6 -17.414665723995913 20.635535774703463 9.71326513603243 0 0 0
323 5 7.739703680830184 1.3423135246659292 6.404510437669921 0 1 0
324 6 7.604664855074061 1.3026349707993947 9.774240617786113 0 1 0
349 4 11.411063691926932 0.5696562002919099 8.15436755535156 0 1 0
317 5 -14.950880184807984 18.157073354111173 6.381344294359089 0 0 0
318 6 -15.063544111213574 18.4061728905584 9.848713393897482 0 0 0
313 4 -14.433803067931986 16.514029285170682 8.117698532591811 0 0 0
346 4 -13.739586715528324 19.71132015681232 8.144634402913425 0 0 0
350 5 -14.288264041350821 21.470433103078086 6.552129972039992 0 0 0
351 6 13.179875531761427 0.1971267828811876 9.748947350315072 0 1 0
540 4 -19.9414090156323 17.817210014898162 8.078139558706813 1 0 0
314 5 -12.5879539218116 16.019921073641328 6.3977533174764405 0 0 0
315 6 -12.509166173760967 16.120110546939184 9.872424484102138 0 0 0
310 4 -12.014626300457035 14.331545467627896 8.146680339266906 0 0 0
347 5 -11.861158467820447 19.16044699444229 6.451118672584282 0 0 0
348 6 -11.826747963622156 19.184950990725262 9.706745271443648 0 0 0
539 4 -17.328755917926166 15.525891937558166 8.097375680885591 1 0 0
337 4 -6.35937865257537 13.035541801501335 7.8489938001347 0 0 0
338 5 -4.387346789452741 12.70352111487033 6.208063014769132 0 0 0
339 6 -4.4047534986949 12.735645110901366 9.51740461839636 0 0 0
146 1 -9.549860834708058 17.7467103423832 1.5282421127733352 0 -1 0
176 1 -6.352277367914222 18.590566856339848 1.442534723377404 0 -1 0
177 2 -4.660362331726617 18.021437891853857 -0.3006460038701416 0 -1 0
178 3 -4.698906951048192 18.079917283832863 2.939812099815546 0 -1 0
206 1 -3.344332954189341 19.27724703467757 1.3934985421686936 0 -1 0
57 3 -9.815212546665526 11.546715777219841 3.0038062491332043 0 0 0
311 5 -10.161267317165517 13.797835964475826 6.476175743185798 0 0 0
312 6 -10.190997513608284 13.647861879778512 9.726717935578755 0 0 0
147 2 -7.848282292493673 17.191980437750207 -0.2860935886255807 0 -1 0
148 3 -7.563293238008964 17.238242675025145 3.0484288892506606 0 -1 0
118 3 -8.918060734829837 14.31129972107419 3.02175577229671 0 -1 0
52 1 -9.528003607182205 9.606539251166398 1.379899721702834 0 0 0
56 2 -10.053608537406541 11.444856571082155 -0.21213116427075202 0 0 0
341 5 -6.933350929714595 14.864466168720048 6.3937880721713825 0 0 0
173 1 -4.43089020831084 16.244031149747215 1.3677811462213936 0 -1 0
174 2 -2.468574123337744 15.574672486144182 -0.1898830905190103 0 -1 0
117 2 -8.98963003350653 14.404865489402587 -0.19819838483621044 0 -1 0
83 1 -8.50054965313473 12.63228313981961 1.2291987438973502 0 0 0
340 4 -8.815530413249883 15.06968998119041 8.155461351782382 0 0 0
342 6 -6.706407148813487 14.831719649586047 9.632597466440288 0 0 0
143 1 -7.4806851813887425 15.514894463996416 1.3875075025210393 0 -1 0
144 2 -5.811746272911389 14.918844806078923 -0.2877824418981753 0 -1 0
145 3 -5.731657078893187 15.17945781290165 2.8438955653323634 0 -1 0
175 3 -2.541823014461426 15.830164079976752 3.058412432112977 0 -1 0
53 2 -7.925249590575299 9.058967923707353 -0.16042876795391559 0 0 0
54 3 -7.540319184284542 9.038779996728518 2.984848586656801 0 0 0
80 1 -6.360032230387102 10.433008972846425 1.280541474298091 0 0 0
84 2 -6.799401785980718 12.25391314312675 -0.3381975028065696 0 0 0
85 3 -6.814844135302662 12.234023937202 3.0388736491501125 0 0 0
81 2 -4.598574836337194 9.771738498425565 -0.4392190770256879 0 0 0
82 3 -4.557380741896723 9.803344797252445 2.723579738342581 0 0 0
110 1 -2.985742565590347 11.003039593733703 1.3118208308051018 0 0 0
113 1 -5.256239288108723 13.288278321595726 1.383850497203207 0 0 0
114 2 -3.5810362371860935 12.848500840861155 -0.05105777841585232 0 0 0
115 3 -3.44042019758699 12.834607453003452 3.0619938942350142 0 0 0
343 4 -11.254935607673728 17.38959503888292 8.164889882258583 0 0 0
344 5 -9.579976235959558 16.90803677647716 6.502127050384593 0 0 0
345 6 -9.2903190023027 17.16796708693993 9.714042887940803 0 0 0
373 4 -8.114175483045715 18.52952735721157 7.836356708851367 0 0 0
376 4 -10.675726401716316 20.67375276632864 7.996551197043089 0 0 0
377 5 -8.807360737584847 20.458769482514064 6.194918808176543 0 0 0
378 6 -8.776415994060308 20.278864385388264 9.529504197147489 0 0 0
380 5 16.1411098112849 1.0900344425892279 6.380645169075458 0 1 0
381 6 16.225643475963373 0.8932549818085426 9.702624972565479 0 1 0
406 4 20.01936141122042 0.2125519089536776 7.932373267115073 0 1 0
370 4 -5.763388754056127 16.38668500682507 7.854991315664582 0 0 0
374 5 -6.406053293123829 18.065854433709728 6.180911075687975 0 0 0
375 6 -6.321904192246895 18.04703069433289 9.606768939758084 0 0 0
407 5 -5.60479357801407 21.334675206394554 6.362443766989397 0 0 0
408 6 -5.42710687538279 21.363094377121588 9.481769356535697 0 0 0
403 4 -5.067616108845316 19.53176598181549 7.902124359852156 0 0 0
371 5 -3.9822892703058645 15.945366563479919 6.103519001269284 0 0 0
436 4 23.235388896518433 1.2428290750381186 7.935145153699566 0 1 0
372 6 -3.9994034029022996 15.93283423690343 9.570076944069301 0 0 0
368 5 -1.5083243283652252 13.68682386924212 6.125852434561389 0 0 0
369 6 -1.392347400348009 13.797473478099006 9.430276893163077 0 0 0
394 4 2.5631744800882847 12.9086808615614 7.8525291801403245 0 0 0
395 5 4.433419675877772 12.343724901936385 6.220997657309128 0 0 0
207 2 -1.690859002521249 18.632925717132462 -0.15301963852819167 0 -1 0
208 3 -1.6809160659676934 18.544254228452107 2.964907587608106 0 -1 0
232 1 1.9831932265454486 17.54804675034039 1.4033255001502312 0 -1 0
236 2 1.6157100090123484 19.013959617474463 -0.31956506370873544 0 -1 0
237 3 1.4604944848613532 19.27156185035863 2.779439024745781 0 -1 0
260 1 5.030442170480496 18.320247827170853 1.4744807614703632 0 -1 0
170 1 -2.0545713301961817 14.04498027693927 1.4352116711107583 0 -1 0
367 4 -3.1860243899552727 14.183812447746186 7.822083293579796 0 0 0
398 5 1.607580799612221 14.66700248698292 6.01687241000492 0 0 0
203 1 -1.2288139033202585 16.850582682734153 1.3049132903439127 0 -1 0
205 3 0.5421872448281122 16.538509330537977 3.1023858241470603 0 -1 0
233 2 3.896353841093112 16.910663153684926 -0.07259382770218437 0 -1 0
234 3 3.838922606500479 17.207065853643563 3.1418961402097443 0 -1 0
111 2 -1.4472310946482032 10.47299981457941 -0.3220035134841168 0 0 0
112 3 -1.0793848551911291 10.318478683706324 2.974020017536535 0 0 0
399 6 1.763646784957569 14.86526926705377 9.385275855539293 0 0 0
204 2 0.7239209716335616 16.522019310933096 -0.1331697704830552 0 -1 0
171 2 -0.3804212966490458 13.584190604637438 -0.31817138029663383 0 -1 0
172 3 -0.41247776943147896 13.429248047405897 2.8513849478141258 0 -1 0
140 1 0.1262834015057575 11.62268218111938 1.3312898099083292 0 0 0
397 4 -0.24267377117843691 15.1788128129112 7.760473295111208 0 0 0
229 1 3.99848342677818 15.196691423555523 1.3958668632368703 0 -1 0
200 1 0.9703300061121708 14.599586920080718 1.412197303557042 0 -1 0
141 2 1.792285745599264 11.128705148166292 -0.3527629335358296 0 0 0
142 3 1.714612112861277 10.833624645149865 2.7982725409872207 0 0 0
201 2 2.6525828705983874 14.2962783346724 -0.2873110859091069 0 -1 0
202 3 2.49203816865889 14.158757154336893 2.994844750328717 0 -1 0
137 1 1.8451616379203648 9.184255625736972 1.11045535766082 0 0 0
164 1 4.8030367554950155 9.8013247350759 1.1836946979111647 0 0 0
167 1 3.0099924345767324 12.353054867267232 1.246914842543567 0 0 0
168 2 4.806546649546782 11.764877790822053 -0.34302557941864564 0 0 0
169 3 4.6603346627111115 11.525699729368274 2.962344163888461 0 0 0
400 4 -2.7155494462985357 17.41002707138623 7.8275261120471615 0 0 0
401 5 -0.8703832814871074 16.86588261072038 6.1568819995577755 0 0 0