LAMMPS data file via write_data, version 27 Jun 2024, timestep = 10000, units = metal

540 atoms
6 atom types

0 37.59365801343109 xlo xhi
0 21.52779524830364 ylo yhi
-0.510668241930952 10.079228539732608 zlo zhi
-27.49615054720427 0 0 xy xz yz

Masses

1 95.95
2 32.06
3 32.06
4 95.95
5 78.971
6 78.971

Atoms # atomic

120 2 -11.495019835991835 9.271052963241782 -0.3921546510197398 0 -1 0
121 3 -11.511004934155851 9.452297393004228 2.728107870253179 0 -1 0
530 5 -5.511247165097291 10.936384115822202 6.798930908361303 1 0 0
531 6 -5.445201588083464 11.131845392712474 10.039491436856318 1 0 0
529 4 -7.366829055822848 11.509385590883458 8.3564713131252 1 0 0
526 4 -4.796658615431697 9.224449177417855 8.358819345903798 1 1 0
527 5 -2.8765895993512403 8.99503667286423 6.6914427746728675 1 1 0
84 2 30.361523131367825 4.806510036014504 -0.34702267959128735 -1 0 0
85 3 30.23031007790071 4.801098832636779 2.731000971102867 -1 0 0
113 1 -6.1605364653000825 6.067204184375584 1.2636201078748228 0 0 0
110 1 -3.9668541160862265 3.7163275441229144 1.3588038359315115 0 0 0
114 2 -4.348261627265011 5.4772871193448065 -0.22307531521929527 0 0 0
115 3 -4.303011066226511 5.4669044268394344 2.9195487447190267 0 0 0
499 4 -10.452916994391437 10.443456009202757 8.163835389322532 1 1 0
500 5 -8.624718706361618 10.039542363262825 6.518524640092306 1 1 0
501 6 -8.72812082882312 9.950047350309594 9.883080231725376 1 1 0
496 4 -7.923867174169093 8.268858234346974 8.238629534446403 1 1 0
497 5 -5.993754671311983 7.917771135843827 6.560825723293664 1 1 0
498 6 -6.365577519536 7.808681929277365 9.910158702366997 1 1 0
494 5 -3.547619804974162 5.646259557567936 6.513195112783854 1 1 0
495 6 -3.593894803684818 5.47995396774619 9.714967265558114 1 1 0
116 1 26.554316456599985 7.666181513745538 1.1765603436472238 -1 -1 0
118 3 28.049927804568842 7.007007666162342 2.7786335987716977 -1 -1 0
117 2 28.49007597586388 7.0728109698054435 -0.3991455623325806 -1 -1 0
144 2 -6.513530639650968 8.000562288971816 -0.22358631906260962 0 -1 0
493 4 -5.520441360867209 5.972708319577971 8.122297717948747 1 1 0
173 1 -5.008247176498249 9.03098491416649 1.3936841460993732 0 -1 0
143 1 -8.177505490323412 8.420639857755882 1.3383773891031256 0 -1 0
145 3 -6.4569069344841274 7.751440635449085 2.964975936008291 0 -1 0
175 3 -3.50193739135382 8.388958060631875 2.88398067994307 0 -1 0
174 2 -3.1910156020590366 8.377647450620104 -0.15386496506430428 0 -1 0
528 6 -2.8983200059404703 8.809264910020001 10.014236845540335 1 1 0
523 4 -2.2997320896711506 7.065890530926813 8.207408279618859 1 1 0
328 4 1.3383370134119728 11.3542388675621 8.307225273380821 0 0 0
298 4 -1.666428907004763 10.332163888866406 8.345222410429356 0 1 0
299 5 0.18094481016858222 9.905052803097135 6.675221872581031 0 1 0
300 6 0.14770839719248424 9.891279537330838 10.069228539732608 0 1 0
329 5 3.1779092281490997 10.804451161646234 6.625279365076269 0 0 0
330 6 3.296620375220229 10.721193017101633 10.056074017241299 0 0 0
325 4 3.8413897303860636 8.995484105871961 8.314889173035423 0 1 0
104 1 10.374234905586828 20.457851525088838 1.3806218519610334 -1 -1 0
295 4 0.8542935861123944 8.136586901270565 8.360041279023104 0 1 0
296 5 2.4269462765362153 7.621102675741045 6.568605000931727 0 1 0
297 6 2.679483398803653 7.514878848873045 9.967741254535532 0 1 0
107 1 -1.802657341906607 1.4814926454004471 1.4716947268811023 0 0 0
108 2 0.08865380546828748 0.8820986770785464 0.040332523334793716 0 0 0
109 3 -0.10055741988724821 0.7598629871954239 3.0524406016512398 0 0 0
134 1 -23.935248393042606 21.33999605375894 1.1166968272609235 0 -1 0
138 2 3.096827197425882 1.743550314092393 -0.27525002854946 0 0 0
139 3 3.5013576696364543 1.3525290557951377 3.1321601263976904 0 0 0
524 5 -0.4554159481175152 6.673170390042569 6.501492835276688 1 1 0
525 6 -0.406192131106293 6.551360867369711 9.721649727970899 1 1 0
292 4 3.2616837998093366 5.81195305308079 8.14104819512046 0 1 0
293 5 4.950484340572412 5.410915351047174 6.335112244687625 0 1 0
111 2 -2.075576422504217 3.2099639696518807 -0.304449452937787 0 0 0
112 3 -2.2375994919876976 3.291301152525122 2.9956446374282995 0 0 0
137 1 1.455535678338516 2.081660621795232 1.5644984106577478 0 0 0
521 5 1.865509416838247 4.517405295787762 6.248648621590804 1 1 0
522 6 2.050453933150006 4.176945047699144 9.637814657752639 1 1 0
140 1 -0.7746395152480637 4.46106982220157 1.4220174272286472 0 0 0
141 2 1.0298135463871416 3.85869118276286 0.0047316764484727 0 0 0
142 3 1.0245519683747606 3.9409113019380957 3.0079668229685654 0 0 0
167 1 2.4991841507129173 4.990039307590853 1.447837573718227 0 0 0
520 4 0.187998067269003 4.767859399755185 8.012772240683333 1 1 0
164 1 4.554606809806948 2.6744605698483035 1.4451277077970466 0 0 0
168 2 4.338809011561094 4.393228501360742 -0.14405302577913268 0 0 0
169 3 4.1530223816646235 4.666039872331001 2.9755450014064793 0 0 0
518 5 4.409849736366856 2.1199457040061045 6.246483213569489 1 1 0
519 6 4.419802796791708 2.010957478177987 9.70782549441555 1 1 0
517 4 2.4953054212059342 2.5302239420880164 7.7823560508047755 1 1 0
170 1 -3.036900749699875 6.582908510229117 1.3662642016904063 0 -1 0
171 2 -1.1502081549146557 5.918800815073358 -0.29709965305836594 0 -1 0
172 3 -1.3457345432556795 6.510636478925103 2.9845730056353474 0 -1 0
229 1 3.412823229205475 8.05352497511583 1.267780637180942 0 -1 0
200 1 0.3213873608928292 7.484353350659051 1.3741922339230896 0 -1 0
201 2 2.070543347741425 6.861688866003771 -0.245619266310833 0 -1 0
202 3 2.144926746068865 6.676769080368055 3.01334205191027 0 -1 0
491 5 -1.0724245957896898 3.343086088202369 6.175901032898287 1 1 0
492 6 -1.0151299443871822 3.1157755557752993 9.588681583826217 1 1 0
294 6 5.168788028057242 5.320770454600209 9.628210327755191 0 1 0
490 4 -2.9264701031157085 3.7285256815909267 8.062958021838405 1 1 0
205 3 -0.023097557220371368 9.16617278884167 3.020981460283159 0 -1 0
204 2 -0.1602557398933777 9.143021330093447 -0.36863084786927647 0 -1 0
230 2 5.325476263644662 7.613779536824572 -0.39678866417801306 0 -1 0
326 5 5.597400083531595 8.559380101892655 6.475757816452376 0 1 0
327 6 5.872641705933256 8.469479083985675 9.764404380981292 0 1 0
289 4 5.660625269421475 3.6064849289269794 8.03084862369102 1 1 0
135 2 -22.050780064690258 20.795914759255023 -0.3237339714943031 0 -1 0
359 5 6.213151308152987 11.741335494073597 6.298232557433501 0 0 0
387 4 10.048369776952816 10.908552020143865 7.974441387164207 0 0 0
355 4 6.875738027444048 10.030779096455994 8.04418478768253 0 1 0
356 5 8.763179281385495 9.572935930973024 6.193130754438349 0 1 0
357 6 8.806357610461577 9.612221405987984 9.693069865988425 0 1 0
385 5 11.81681851160303 10.581338823651224 6.329308079710896 0 1 0
386 6 11.784431393252133 10.626437910443775 9.60490987827857 0 1 0
382 4 12.390867793021942 8.782838140374007 7.869885779940054 0 1 0
322 4 6.3405293990685765 6.8128739817590125 8.024409325790819 0 1 0
352 4 9.378669763712292 7.838802060533181 7.948980696514607 0 1 0
353 5 11.128934255718624 7.406135417218368 6.160823868177769 0 1 0
354 6 11.212050319264026 7.457433407280558 9.595451404078126 0 1 0
136 3 -22.164494196048583 20.684089260278355 2.6644012693115697 0 -1 0
161 1 6.699980561687366 0.35589039973299874 1.3018137467485527 0 0 0
162 2 -19.199723353786432 21.448768964566653 -0.4310339351686155 0 -1 0
163 3 -19.133728149870723 21.264455332319603 2.820872658143887 0 -1 0
191 1 9.829591431166527 1.0520717611013384 1.329697246971899 0 0 0
192 2 11.690453613108714 0.42340746715733246 -0.12764814247633507 0 0 0
193 3 11.432017777144107 0.3181903596385826 3.0410169503941833 0 0 0
323 5 8.180623425642514 6.407900094754475 6.28441454643714 0 1 0
324 6 8.079184410233768 6.410574409074406 9.654300983945657 0 1 0
349 4 11.824741033341613 5.588509643387756 8.037545367879 0 1 0
165 2 6.19068636141303 2.0944926073809116 -0.19500262125521486 0 0 0
166 3 6.384606897817752 1.9982340032767727 2.8009794747728303 0 0 0
194 1 7.537982299070798 3.3787601969742376 1.3123408460230288 0 0 0
195 2 9.573033260752844 2.91258605909703 0.004527768786450109 0 0 0
196 3 9.131342102771809 2.7938580824508743 2.991656211313375 0 0 0
319 4 8.7251227711489 4.735293090116896 7.877036575203773 0 1 0
320 5 10.53465143425148 4.203145748459782 6.323189968380239 0 1 0
321 6 10.589017995695029 4.287708590550426 9.65616989967071 0 1 0
197 1 5.628856855886561 5.8810276701842685 1.3332648052453524 0 0 0
198 2 7.032286515186158 5.080417877130043 -0.20946754841039686 0 0 0
199 3 7.415006278531123 5.080816397502136 3.0354405542484035 0 0 0
224 1 10.743901493307083 4.12964439979777 1.6287397396619074 0 0 0
227 2 10.533760359036162 5.913425607274205 0.015184591593836406 0 0 0
228 3 10.145815892921727 5.774600517540862 3.1643579532324897 0 0 0
225 2 12.786911515029074 3.8403613773483958 0.26102101274719136 0 0 0
226 3 12.584209240890116 3.3448767618867388 3.3253006971270516 0 0 0
221 1 12.905239002684823 1.8030823232937838 1.5825674541461847 0 0 0
291 6 7.6820912054540385 3.307939149766433 9.738008643122834 0 1 0
290 5 7.536939022924068 3.142787025546611 6.199501544047998 0 1 0
316 4 11.12621827913827 2.3894794310814373 8.077906833319863 0 1 0
317 5 12.865333708179623 1.809379296253342 6.470997757249081 0 1 0
231 3 5.142689664653794 7.503846651098489 2.814579992820688 0 -1 0
256 1 8.677046715724664 6.187263124316833 1.4534341971873328 0 -1 0
276 1 11.737667085736847 7.055924393674276 1.6629022429124922 0 -1 0
540 4 8.043190427303934 1.461754886052186 7.928793315852358 1 1 0
318 6 13.065600727648834 2.024037717730575 9.786372541860146 0 1 0
280 2 11.489333908182498 8.896718001167047 0.24897105191332972 0 -1 0
281 3 11.573540339929785 8.804529525194258 3.312549884469175 0 -1 0
257 1 6.643298180008388 8.688607352111967 1.338992479931374 0 -1 0
258 2 8.529942815165093 8.157547872831504 -0.011646956458797365 0 -1 0
259 3 8.330061501280099 8.141236830485738 3.1232268789516553 0 -1 0
350 5 13.612610030737615 4.99878774945537 6.353911049785633 0 1 0
351 6 13.699757304137565 5.19026019109642 9.74806973985496 0 1 0
416 5 14.881107299806581 11.639321337982881 6.300177038258763 0 0 0
417 6 14.904640691436281 11.708071324393352 9.543854592914103 0 0 0
412 4 15.47970619428916 9.731479705757982 7.86153359662004 0 1 0
444 4 18.410325145418163 10.72221035958298 7.998764633429552 0 0 0
413 5 17.412847970508356 9.2172235774736 6.2751725739094315 0 1 0
414 6 17.202355203594188 9.176306727162588 9.574681003234382 0 1 0
442 5 20.328454519781832 10.348884590113592 6.429434708245586 0 1 0
443 6 20.30176062675783 10.103485426255537 9.65419922079965 0 1 0
384 6 14.231212443975117 8.34957420605546 9.471534425170153 0 1 0
383 5 14.2337812421126 8.219357360514216 6.169500956294987 0 1 0
219 2 -10.527388610404065 20.68405189687182 0.06977086224071316 0 -1 0
220 3 -10.615388964710382 20.55667099469281 3.126503160924524 0 -1 0
439 4 21.04257962694633 8.381244933997554 7.9875189956119454 0 1 0
379 4 14.851339599867355 6.434382386089224 7.9840052353272375 0 1 0
409 4 18.13522101210192 7.337257035325743 7.961289453402259 0 1 0
410 5 19.86874772905554 6.9176966443974885 6.321344962428664 0 1 0
411 6 20.103382048120494 6.936115493228262 9.74341208880334 0 1 0
223 3 14.743854892478987 1.2227655118506904 3.2227212809795747 0 0 0
218 1 -12.305819895874581 21.18317089378048 1.5505817472837307 0 -1 0
247 1 18.273469366055426 0.38581472587058147 1.6875468378796605 0 0 0
248 2 -7.750580049292908 21.093745023414066 -0.043519679423756806 0 -1 0
249 3 -7.463476509116847 21.333883518009657 3.146823553400249 0 -1 0
380 5 16.85639364441507 6.013555743519585 6.324335004023592 0 1 0
381 6 16.73473847625536 6.033205199624933 9.589797619731813 0 1 0
406 4 20.56492310311069 5.149256518947443 7.978482134444955 0 1 0
3 1 19.09399795739762 3.3280544370295493 1.6560511235946611 -1 0 0
222 2 14.73282337647216 1.2666791753453148 -0.060959835794150735 0 0 0
250 1 16.060300819400968 2.554439707402297 1.6567000398415983 0 0 0
251 2 17.7471549052022 2.1282817299383874 0.11111914639243134 0 0 0
252 3 17.961053288661915 1.9913588848859298 3.240313364510087 0 0 0
346 4 14.214287895540904 3.237999145402168 8.013232575703617 0 1 0
376 4 17.285394655091807 4.245570501639734 7.969518928894427 0 1 0
377 5 19.231402735396696 3.6997261153182355 6.203320685441529 0 1 0
378 6 19.17856565158377 3.7562062172917168 9.570887414092798 0 1 0
6 1 17.0401824781399 5.547464664288046 1.780506036409102 -1 0 0
7 2 18.720192100419144 5.1434570197006755 0.04737810886554501 -1 0 0
8 3 19.141446858418906 5.381606291957576 3.0627679448625886 -1 0 0
253 1 13.952369475336688 4.879448652417471 1.8126292303236782 0 0 0
254 2 15.739701382965151 4.478391431168147 0.16106407070968967 0 0 0
255 3 15.51243759093129 4.1727194101036575 3.3564543092884316 0 0 0
4 2 20.85990415836819 2.7958264632781393 0.09531164480736963 -1 0 0
5 3 20.863525514533816 2.692753970494474 3.0328028577300232 -1 0 0
60 2 19.777407130420976 7.748967327405216 -0.08652899732920198 -1 -1 0
347 5 16.042783487929785 2.7161754692087716 6.404566894807799 0 1 0
348 6 16.089347002633488 2.817336515120673 9.770068400725162 0 1 0
32 2 16.61931785191875 7.252020492048968 0.24479945419331442 -1 -1 0
33 3 16.62111184416114 7.360547118625647 3.173116491095178 -1 -1 0
31 1 14.862741149351839 7.762495011320772 1.7355940528558578 -1 -1 0
277 2 13.526017019719637 6.659364117041849 0.09137930759382958 0 -1 0
278 3 13.482459223082317 6.722119854200846 3.332291823318269 0 -1 0
58 1 20.303493510481044 6.185641905344942 1.5136095125698437 -1 -1 0
275 1 21.29616665676118 0.9751328330962968 1.5320054491721589 0 0 0
343 4 16.717961514230925 1.005064227964607 8.112548555652365 0 1 0
373 4 19.8036966609433 1.987252132662551 7.932831261418953 0 1 0
89 1 21.236483739788838 9.198958906464883 1.3406452705832086 -1 -1 0
59 1 17.915819400188788 8.534586782282071 1.6184067482960705 -1 -1 0
61 3 19.986508162923634 8.09943462624498 2.893914002217426 -1 -1 0
35 2 14.530415600814656 9.448937891948798 0.08892643495766682 -1 -1 0
83 1 28.396471393418253 5.155499943465803 1.1161433306356885 -1 0 0
53 2 29.03724382417838 1.888574697296676 -0.4378959566824267 -1 0 0
55 1 25.45295855544643 4.875276747105286 1.0849415445041972 -1 0 0
57 3 27.143419524321565 4.07109119040217 2.5795995935641107 -1 0 0
56 2 27.005068518031916 4.001104261320662 -0.44672955184328395 -1 0 0
407 5 22.24459879893093 4.73189543312009 6.297300068685111 0 1 0
408 6 22.425647994108704 4.712784273716029 9.589570190028732 0 1 0
28 3 24.265323964206463 3.43187256636716 2.7723590923396593 -1 0 0
52 1 27.46846670137656 2.4323534190172675 1.174147780837958 -1 0 0
24 2 26.2420046322163 1.243763607517167 -0.38309007495153313 -1 0 0
25 3 26.45762300025093 1.0545921730149002 2.6795224416245422 -1 0 0
20 1 -0.8683133378341876 20.85481021190897 1.0971649838879274 -1 -1 0
21 2 0.871416826231568 20.280438467460275 -0.2848667774751742 -1 -1 0
473 5 -14.28643856068037 11.299830012132912 6.5285094263549235 1 0 0
474 6 -14.294716302714056 11.357680789799973 9.847038905897408 1 0 0
469 4 24.063412878399816 9.485019293806483 8.159224605619881 0 1 0
470 5 25.919668991285995 9.10462416535246 6.406271526816501 0 1 0
471 6 25.902698564783957 9.002114436159943 9.763487178021808 0 1 0
440 5 22.89357744610998 8.101863039872706 6.329213629597955 0 1 0
441 6 22.938712250464608 7.788711109683204 9.72170755574238 0 1 0
272 1 -4.016558970827146 20.337821225528 1.4594182958852926 0 -1 0
466 4 26.53059725144468 7.237320194516558 7.924340769722046 0 1 0
467 5 28.650294036044123 6.888403219706231 6.339032577541993 0 1 0
468 6 28.306513289531726 6.8089244538535105 9.654240910861846 0 1 0
1 2 22.871271343919293 0.5231444002835202 -0.04762642233765956 -1 0 0
2 3 23.40611965877818 0.6852138983420504 2.9983139097510447 -1 0 0
23 1 24.599742464160716 1.7641415319980864 1.2669811151117694 -1 0 0
27 2 23.902993241292524 3.4688472700214894 -0.23847813816945776 -1 0 0
436 4 23.448559934432158 6.123006688344126 7.927476917914938 0 1 0
437 5 25.32852055029887 5.69758665391355 6.284858269780169 0 1 0
438 6 25.320594483111016 5.546353771430823 9.463902339073313 0 1 0
463 4 28.89703055728379 4.976686526683136 8.067323705040453 0 1 0
29 2 21.765821833806086 5.478957952699478 -0.20867430047161664 -1 0 0
30 3 22.287078851238146 5.593731240794206 3.082007473011329 -1 0 0
433 4 25.98905224526361 3.86168939809006 7.863247081647156 0 1 0
434 5 27.817980699316976 3.7181897878666668 6.352644871054029 0 1 0
435 6 27.64655672769368 3.452120401799709 9.665934851902676 0 1 0
26 1 22.244096484061068 3.8253701101626785 1.479231203027168 -1 0 0
22 3 1.0670828146173357 20.60782838363118 2.767747934603334 -1 -1 0
86 1 23.188541313967143 6.87337258027063 1.3084105973743014 -1 -1 0
87 2 25.052530981470117 6.698804009259852 -0.3316663308845867 -1 -1 0
88 3 25.276921469429542 6.521376571302815 2.700450620454363 -1 -1 0
403 4 22.956277272880982 2.9814157682418774 7.9587257341996205 0 1 0
405 6 24.62776996639829 2.276021466044916 9.476412371670678 0 1 0
404 5 24.73977840665765 2.490754636949697 6.245807898793418 0 1 0
54 3 29.153612306896584 2.1906097527446997 2.7343614608337377 -1 0 0
374 5 21.661357117458273 1.5565499915011105 6.320569761311547 0 1 0
375 6 21.692281827346545 1.4629313656856533 9.54271871077224 0 1 0
430 4 28.441925609601654 1.7352560942038486 8.030340921304196 0 1 0
90 2 22.695604181676384 8.565656156900813 -0.1161283780684048 -1 -1 0
91 3 23.03504508422382 8.693446808645271 2.823281602466457 -1 -1 0
80 1 30.72131551998084 3.0197029886169653 1.1745572615103006 -1 0 0
81 2 32.505185773385755 2.5658569838060448 -0.3478170903784779 -1 0 0
82 3 32.301606375908754 2.4848450090185676 2.7633119945180136 -1 0 0
78 2 34.6530318078827 0.10086578208756843 -0.08043146124939357 -1 0 0
79 3 6.890813975342302 21.44159907715005 3.0130003604644164 -1 -1 0
50 2 4.0662369941718515 21.04152744125433 -0.3352518893436883 -1 -1 0
51 3 3.728015790874237 21.266555263850343 2.7515761431677355 -1 -1 0
77 1 32.80867906918748 0.6954576159075077 1.3030408533421132 -1 0 0
49 1 29.626803557198215 0.2565760273060996 1.1400472137895274 -1 0 0
464 5 30.93260899917481 4.580778170423019 6.484771946336703 0 1 0
465 6 30.62739033909199 4.619146013113981 9.803787477609193 0 1 0
460 4 31.436605863642907 2.672341176453038 8.06176301044993 0 1 0
461 5 33.38897241978865 2.457635184092354 6.371251801597283 0 1 0
462 6 33.38737971740292 2.2053745686287476 9.619126350088349 0 1 0
431 5 30.174180542676403 1.3654241447217887 6.430027342440806 0 1 0
432 6 30.2312834534783 1.2548832234064613 9.557207487145712 0 1 0
487 4 -0.58151217670051 1.4330502855912726 7.764005268144184 1 1 0
105 2 -25.34398153138669 20.127654909636338 -0.24732598173296338 0 -1 0
106 3 -25.298810759602535 20.155765402564096 2.8462497010101004 0 -1 0
131 1 -21.62382327257438 18.88235330869687 1.2077234116876947 0 -1 0
101 1 12.87521900447763 18.43872129597351 1.24603817623475 -1 -1 0
102 2 14.358827611086157 17.59814221788185 -0.5006682419309519 -1 -1 0
103 3 14.42181512634716 17.64665228345634 2.9452820270977536 -1 -1 0
132 2 -19.69780362737509 18.43733590564771 -0.3151810956967109 0 -1 0
133 3 -19.82267537822436 18.395289008231362 2.8791765023260125 0 -1 0
99 2 16.52145420553943 15.512324457718575 -0.1888889530680375 -1 -1 0
100 3 16.83236354405934 15.682827148910123 2.854657268935421 -1 -1 0
515 5 -20.64595371302434 21.383145569559684 6.20428586719343 1 0 0
516 6 -20.525217572622296 21.477273324351128 9.432071122372495 1 0 0
128 1 -19.510530377981276 16.720190335296497 1.24465068687865 0 -1 0
488 5 1.2406668357367767 0.9590584594277146 6.150603055164844 1 1 0
489 6 1.3306023427759877 1.1327133073807758 9.338144972761082 1 1 0
511 4 -20.109554731562845 19.407092109357112 7.877660373902178 1 0 0
514 4 5.008794573282374 0.27238787058866326 7.8284291914342665 1 1 0
485 5 -23.66003870482289 20.26883704739147 6.069799519792624 1 0 0
486 6 -23.779786640306696 20.359115045774086 9.442364651157444 1 0 0
482 5 -21.334635945770877 17.98638545610322 6.193774317887367 1 0 0
483 6 -21.551417567665908 18.04803139160527 9.524902319807074 1 0 0
502 4 -13.042376824747036 12.787960598193655 8.226820610713164 1 0 0
158 1 -18.624817978758266 19.734271633341592 1.270818836989529 0 -1 0
159 2 -16.945494162546616 19.081469564814686 -0.48091701247575935 0 -1 0
160 3 -16.944777002776274 19.18888505662743 3.145275914939466 0 -1 0
188 1 -15.548523308437723 20.14953326039909 1.3805505763574524 0 -1 0
189 2 -13.620614234453999 19.928050699237673 -0.03197764916371332 0 -1 0
190 3 -13.786563973965825 19.958672332576587 3.12246235686292 0 -1 0
155 1 -16.60210621409818 17.48197984032921 1.3070955370220707 0 -1 0
156 2 -14.585948658283996 17.129517223666856 -0.11506965649310803 0 -1 0
157 3 -14.66296553002542 17.141871364515072 2.9360545206875384 0 -1 0
185 1 -13.211373263716414 18.161667203753666 1.4855667002436248 0 -1 0
186 2 -11.381307482260857 17.919067916635225 -0.2683413039373337 0 -1 0
187 3 -11.481219324216422 17.697547683766622 3.1158689582715153 0 -1 0
129 2 -17.889991650016118 15.984051801013981 -0.4031020627869977 0 -1 0
130 3 -17.770236288637626 16.266724995443916 2.8008319691053245 0 -1 0
152 1 -14.350414880181628 15.221358605453215 1.3838060335814704 0 -1 0
153 2 -12.65522604190735 14.96659038709456 -0.13600211043097576 0 -1 0
154 3 -12.48272122830591 14.656482253060746 2.9688185186538694 0 -1 0
506 5 -13.589775826398098 14.669353232338459 6.719029845659348 1 0 0
507 6 -13.815764419785827 14.504459046945616 9.969717097916211 1 0 0
535 4 -12.4087123032246 15.978669032814661 8.28824688122187 1 0 0
125 1 -17.43657900625054 14.398914807655542 1.2020248207897093 0 -1 0
122 1 -15.352861171994345 12.15257567972959 1.355046414969963 0 -1 0
126 2 -15.48051729968168 13.884266388122592 -0.31631178179754477 0 -1 0
127 3 -15.75255847426054 14.074041904929476 2.864281432035286 0 -1 0
283 5 -12.940111105939225 17.72113032154371 6.460906575615707 0 0 0
284 6 -13.067364404111581 17.781133322078066 9.880687454036176 0 0 0
124 3 -13.810854900057585 11.576027337731714 2.998989107307334 0 -1 0
123 2 -13.58847765431772 11.651487046942664 -0.22389902372397746 0 -1 0
538 4 -14.787392754168199 18.338215433267663 8.08348659226413 1 0 0
119 1 24.251011209025283 9.846268710443015 1.2003436193094972 -1 -1 0
285 5 -15.410118966108705 20.203791741815287 6.416804064521393 0 0 0
286 6 -15.320059803761097 20.11034180716373 9.695417258449687 0 0 0
287 5 9.894938281924732 0.8619710116020755 6.282672226270252 0 1 0
288 6 9.783047214580979 0.8166096632557499 9.642328559868915 0 1 0
313 4 -14.004169940376498 21.5160047847259 8.076680291023727 0 0 0
314 5 -12.082179820587173 20.9931933649347 6.562133710028235 0 0 0
315 6 -12.329526276780243 21.06879161001981 9.837136659195302 0 0 0
310 4 -11.711727892595063 19.18045021006343 8.238634704502308 0 0 0
539 4 -17.209129414278525 20.572014330205253 8.099577721677996 1 0 0
509 5 -16.002309499088256 16.798206394147268 6.541458440823555 1 0 0
512 5 -18.150027349195128 18.981487104608608 6.346205025977945 1 0 0
513 6 -18.47367175412084 19.12123640073643 9.758485128666567 1 0 0
510 6 -16.102182877586575 16.87478766127915 9.69187435260175 1 0 0
182 1 -11.204081462540184 15.935547951605264 1.5078867283931983 0 -1 0
149 1 -12.340167829358437 13.011196290085492 1.4124764334609257 0 -1 0
508 4 -17.918163090152614 17.24406052567265 8.04251520751316 1 0 0
505 4 -15.51097536469203 14.92802929518482 8.234621431781221 1 0 0
479 5 -18.96280950206292 15.563652589468672 6.298450985428465 1 0 0
301 4 -4.204243412707136 12.47194178815601 8.302143944643973 0 0 0
503 5 -11.105458200767051 12.321317176987389 6.561682084472828 1 0 0
504 6 -11.225021715907786 12.323162143047856 9.830173997553722 1 0 0
215 1 -9.968868670741804 18.724837053772067 1.5434330315395204 0 -1 0
244 1 -6.9470071928241675 19.703575940646314 1.5980758568795719 0 -1 0
214 3 -5.140836647339254 19.016695591081373 2.995083890510965 0 -1 0
245 2 -5.526575853399684 19.106106576174255 -0.21204370094521355 0 -1 0
246 3 -5.078578619806967 19.00259805726553 3.0584165566124977 0 -1 0
533 5 -8.010128919419243 13.199364522623672 6.583946122039256 1 0 0
534 6 -8.226248175429067 13.340960858183932 9.904889685224726 1 0 0
532 4 -9.913659751925758 13.676690152338653 8.203015937630347 1 0 0
216 2 -8.11231344983141 18.423250060003774 -0.2721128946166927 0 -1 0
217 3 -8.490260339632318 18.389966540872155 3.007809683387188 0 -1 0
241 1 -5.02591904417651 17.19241303510974 1.4771085592303943 0 -1 0
536 5 -10.637042825347923 15.45916143411862 6.6204431093757705 1 0 0
304 4 -6.781345484049074 14.750079017062037 8.205070884915767 0 0 0
305 5 -4.9041585398930465 14.290515029845995 6.584575699043182 0 0 0
306 6 -4.894987256674498 14.375884560532931 9.96270430089476 0 0 0
537 6 -10.440715831456174 15.444689054620438 9.816889120822017 1 0 0
183 2 -9.64832798121426 15.626131544193912 -0.2264631404018365 0 -1 0
184 3 -9.332475409952306 15.596721615316962 2.916022729317392 0 -1 0
212 1 -8.096429824598182 16.59566988157235 1.3457469141366722 0 -1 0
213 2 -6.250540578637509 16.22787964686281 -0.06807084693208164 0 -1 0
307 4 -9.224247003784866 16.88704162994082 8.256974905876806 0 0 0
308 5 -7.557061668183415 16.54664535507573 6.558427617371462 0 0 0
309 6 -7.3728807460932995 16.595220756278586 9.83979097572925 0 0 0
334 4 -3.627139943175353 15.817112224997315 8.156199726779525 0 0 0
150 2 -10.54344647144627 12.711567617336268 -0.2950283421459868 0 -1 0
151 3 -10.384266623895611 12.55526317944857 2.845233728057309 0 -1 0
179 1 -8.954100600419691 13.81772687354176 1.2905359663699925 0 -1 0
180 2 -7.346591933143983 13.107536958050343 -0.27351365669007105 0 -1 0
181 3 -7.35780574326223 13.128607008288046 2.8203771180180723 0 -1 0
209 1 -5.953893967528072 14.37927848973101 1.2400900327768007 0 -1 0
211 3 -4.391818978778983 14.087703597129021 2.8914731475831426 0 -1 0
337 4 -6.038020611038921 18.025696844625795 8.130125892372996 0 0 0
338 5 -4.215633950466054 17.42663214371597 6.228475155665457 0 0 0
339 6 -4.313042571672768 17.653559702689105 9.725174519888785 0 0 0
146 1 -10.227662470843985 10.74711991391353 1.209344833631926 0 -1 0
176 1 -6.975289183164582 11.408444782809399 1.2811468279486369 0 -1 0
177 2 -5.176170924055664 10.790877799324294 -0.3008503265166247 0 -1 0
178 3 -5.191964668508102 10.884248270532737 2.799759844076103 0 -1 0
311 5 -9.823650360717743 18.694141549555102 6.595679352863089 0 0 0
312 6 -9.803031325924715 18.894052440475228 9.868509217033218 0 0 0
147 2 -8.464177345213534 10.1789225685381 -0.33798863454061834 0 -1 0
148 3 -8.326895859413852 10.304594723791476 2.8627366062582276 0 -1 0
341 5 -6.624301329584528 19.767023756265598 6.335237500452968 0 0 0
340 4 -8.578981590198904 20.21348846829484 8.08693790130119 0 0 0
342 6 -6.777070529961319 19.77096270378578 9.73982897128696 0 0 0
344 5 18.43510494196615 0.3932681639421684 6.4217808880925 0 1 0
345 6 18.570794525840157 0.6079322491870619 9.684103500638797 0 1 0
370 4 -5.38427212763552 21.144188366142572 8.001852142542901 0 0 0
371 5 -3.3684407730898163 20.73791647221426 6.149785113726555 0 0 0
372 6 -3.2832372341377702 20.762359059674978 9.634444113130673 0 0 0
243 3 -3.0754636688005887 16.886080200298537 2.898632027568522 0 -1 0
210 2 -4.101015693793087 14.009377619293575 -0.3204322153726989 0 -1 0
206 1 -3.748131406844161 12.217057438113871 1.262092624428132 0 -1 0
303 6 -2.3079692479788383 12.08156588232167 9.94497721225822 0 0 0
302 5 -2.3900342390165705 11.974593624937254 6.652539752629436 0 0 0
333 6 0.7541930287335733 13.297837143401336 9.845744794862371 0 0 0
358 4 4.336140449118295 12.179741131251106 8.051834993264842 0 0 0
273 2 -2.3001528192079417 19.611804116461514 -0.20546822905396114 0 -1 0
274 3 -2.1610803034816213 19.80053002449857 2.931874266105651 0 -1 0
46 1 4.148170685788415 19.35486777746846 1.297792877512261 -1 -1 0
242 2 -3.328848378230662 16.716929379155538 -0.20122569403630147 0 -1 0
331 4 -1.1171264314690306 13.562904742627785 8.135157795406387 0 0 0
332 5 0.7387355969582513 12.967409035170002 6.4196408920927786 0 0 0
363 6 3.784849133361926 14.13172161651726 9.674852741371128 0 0 0
362 5 3.717045833959679 14.117830264293103 6.207415658411949 0 0 0
269 1 -1.8024831158907046 17.90828039088632 1.308505814848323 0 -1 0
270 2 0.05515033088985567 17.231305426073362 -0.20013542323576253 0 -1 0
271 3 -0.14986339891714973 17.53967576417098 2.819843322077057 0 -1 0
17 1 1.201459657021357 18.586282461603698 1.2600128457489586 -1 -1 0
18 2 2.8822552199478055 17.911591744591277 -0.2195032822582528 -1 -1 0
19 3 2.8783479011194952 18.175874362297815 2.902892073332655 -1 -1 0
367 4 -2.965999695606571 18.873883552862125 7.966980783714127 0 0 0
400 4 25.37550631646981 0.5900843750303238 7.7392772549307445 0 1 0
335 5 -1.833110076686673 15.278492026540146 6.47108380488597 0 0 0
336 6 -1.6446010712752257 15.460222974489927 9.79019243221228 0 0 0
361 4 2.015168264384694 14.553287396575541 7.965990072871552 0 0 0
238 1 -2.723804116673301 14.971332973641076 1.3871048108125112 0 -1 0
239 2 -1.0105881739254325 14.392466417799644 -0.08655899113777292 0 -1 0
266 1 0.19017325698725843 15.595237251864445 1.5261878490882617 0 -1 0
14 1 3.3226254326661104 16.315562826815192 1.3993110385447078 -1 -1 0
267 2 1.8526707501568762 14.925836492360133 -0.01872879656016573 0 -1 0
268 3 2.0091867825256813 15.253461560765663 2.9632743085051407 0 -1 0
364 4 -0.4173420560214374 16.70526714104696 8.038530628805434 0 0 0
365 5 1.3155552068501055 16.14910759275136 6.195416223501959 0 0 0
366 6 1.4658554868153892 16.533178107548668 9.589350497616358 0 0 0
396 6 4.414631039577909 17.447410116313815 9.520917436970365 0 0 0
240 3 -1.0048719873372005 14.44202453458437 3.1311427011345603 0 -1 0
235 1 -0.6952839692465451 12.69422407495531 1.5574736764165156 0 -1 0
263 1 2.4644144842238043 13.30854862814615 1.6087177513757127 0 -1 0
368 5 -1.0748641816217652 18.52582551399653 6.542444811297033 0 0 0
369 6 -0.9342384190303201 18.586511209820898 9.63226248891233 0 0 0
394 4 2.586962382053676 17.80810037878197 7.837434412394595 0 0 0