LAMMPS data file via write_data, version 27 Jun 2024, timestep = 630, units = metal

540 atoms
6 atom types

0 37.59365801343109 xlo xhi
0 21.52779524830364 ylo yhi
-0.33483721347203027 9.638544689461133 zlo zhi
-27.49615054720427 0 0 xy xz yz

Masses

1 95.95
2 32.06
3 32.06
4 95.95
5 78.971
6 78.971

Atoms # atomic

120 2 -11.73298752471307 9.508500996722663 -0.255938338586676 0 -1 0
121 3 -11.66153406865523 9.575158292158404 2.852411410942895 0 -1 0
526 4 -4.681071694508531 9.145879599615581 7.974003720723234 1 1 0
113 1 -6.122253752827636 6.101895535626803 1.3327941136861408 0 0 0
110 1 -4.004065004793044 3.7917745290689995 1.4295371959273855 0 0 0
114 2 -4.367649035841894 5.508475738324453 -0.19256749884700344 0 0 0
115 3 -4.3999530280275785 5.613347604907251 2.9161163433688735 0 0 0
499 4 -10.242744837896538 10.346973324170232 7.972433531162634 1 1 0
500 5 -8.383134807674104 9.93484150692018 6.318436968035753 1 1 0
501 6 -8.387426685823277 9.931364358592756 9.62983453967143 1 1 0
496 4 -7.776233055714886 8.115838676304525 7.967692732421098 1 1 0
497 5 -5.914642606210544 7.7102813437222935 6.3111316926418155 1 1 0
498 6 -5.922020014444907 7.6968755623355 9.6230306219672 1 1 0
494 5 -3.458216466473157 5.475921839772619 6.29753878778216 1 1 0
495 6 -3.467049454369947 5.461069349950656 9.610630327196825 1 1 0
144 2 -6.48284825064622 7.8309699116183165 -0.27922295286120574 0 -1 0
493 4 -5.317754829588018 5.884879103106842 7.956278683927234 1 1 0
173 1 -5.1048019098813135 9.06642613679111 1.2494285655362691 0 -1 0
143 1 -8.223829051623648 8.418728214308084 1.2640121544743714 0 -1 0
145 3 -6.492005377540602 7.917638018680706 2.8293154676531387 0 -1 0
175 3 -3.3960254842754813 8.554392991206539 2.8395769463013973 0 -1 0
174 2 -3.337611345682532 8.495644015640899 -0.2689972206667185 0 -1 0
146 1 -10.316684141510525 10.734894435574457 1.2451989147451037 0 -1 0
147 2 -8.590519366116164 10.16904141327132 -0.32290136649878753 0 -1 0
148 3 -8.568055966630299 10.215973944906693 2.786168445087666 0 -1 0
527 5 -2.822078042261932 8.73812491066134 6.316205060325384 1 1 0
528 6 -2.8271013455470704 8.723295175570552 9.628167252084372 1 1 0
523 4 -2.223878456924611 6.908780395737721 7.962004986322322 1 1 0
298 4 -1.5900437515711219 10.173308479578251 7.97633537268428 0 1 0
299 5 0.265443317262903 9.759231168080298 6.317780272061505 0 1 0
300 6 0.2616669588144847 9.743684559783835 9.630316470855801 0 1 0
330 6 3.3457002641398788 10.751050098580938 9.632076130547063 0 0 0
325 4 3.9461543204013143 8.933367592522739 7.969028375105758 0 1 0
295 4 0.8631260633962385 7.927231839322475 7.965523938541879 0 1 0
296 5 2.7152755557450075 7.505852171156634 6.305612029804858 0 1 0
297 6 2.7086762304158025 7.484765081397711 9.619120933262277 0 1 0
107 1 -1.8670331023075455 1.4951961590615723 1.5229592211565768 0 0 0
108 2 -0.10313151023110861 0.9438311100437518 -0.00803127851857695 0 0 0
109 3 -0.12658573906322346 1.0127909833691313 3.102856453288956 0 0 0
138 2 3.0339986894606508 1.6503578431254395 -0.005703773404919356 0 0 0
139 3 3.0080125442413537 1.692937753121042 3.105630254020764 0 0 0
524 5 -0.36793050130880295 6.494984854656798 6.302122974038069 1 1 0
525 6 -0.3751624539201504 6.476576533509054 9.61524717744654 1 1 0
292 4 3.2984476996359575 5.666609961282384 7.952053151664988 0 1 0
293 5 5.145153056257501 5.235346290523411 6.292177926824536 0 1 0
111 2 -2.2408326711417756 3.2127845241621595 -0.0916210908255944 0 0 0
112 3 -2.278457471368404 3.3092536351509474 3.0181197470000645 0 0 0
137 1 1.2631607468220418 2.177892081720215 1.5277722024980591 0 0 0
521 5 2.065504372890334 4.233080638780327 6.288980539757156 1 1 0
522 6 2.0586188492410495 4.219930317892479 9.603147485725433 1 1 0
140 1 -0.8810808068273009 4.458066694721342 1.4391379278296583 0 0 0
141 2 0.896913000351109 3.9044533161955943 -0.07535519883313768 0 0 0
142 3 0.8414098921215161 3.9742195466065366 3.0348494425836625 0 0 0
167 1 2.2541373401454616 5.1332174388326575 1.4763868434965055 0 0 0
520 4 0.21550038075251324 4.659336797589856 7.948518828615292 1 1 0
164 1 4.405125947939212 2.866686746150985 1.5448944610528976 0 0 0
168 2 4.042022131471061 4.610790845293228 -0.03732393029239382 0 0 0
169 3 3.9776940565421643 4.641249844114829 3.0732571450037725 0 0 0
518 5 4.479481628433511 1.955994953952999 6.282162689492617 1 1 0
519 6 4.477347970714946 1.9532201826275648 9.596768252555586 1 1 0
517 4 2.6369514239293372 2.395827996792705 7.940617010018513 1 1 0
170 1 -3.0033063977396113 6.7551261012872 1.3347831097236482 0 -1 0
171 2 -1.226826424723413 6.184507610232723 -0.17360138224713526 0 -1 0
172 3 -1.2943810503268582 6.262236567734435 2.9353411479469482 0 -1 0
229 1 3.259664454560815 8.093053659137512 1.461923570495569 0 -1 0
200 1 0.12527554702438803 7.415840801856834 1.3817606644698273 0 -1 0
201 2 1.9181581199270759 6.876450891942861 -0.11750838846747531 0 -1 0
202 3 1.8285915756406488 6.916018348525081 2.9916846995488586 0 -1 0
491 5 -1.0208087362354137 3.2247836095515487 6.286072493941374 1 1 0
492 6 -1.028810036088407 3.217062748090568 9.600387589699936 1 1 0
490 4 -2.8744939436903576 3.646280403677366 7.9447921589342485 1 1 0
205 3 -0.28688486849511796 9.195655243655885 2.9016867648705755 0 -1 0
204 2 -0.19187435062866312 9.171610875115224 -0.20659140745073157 0 -1 0
487 4 -0.44777774828229655 1.394526359508459 7.9402361115452775 1 1 0
488 5 1.397925763750022 0.9564086054040707 6.282996642714589 1 1 0
489 6 1.3940760978536437 0.960230710483986 9.597901195939261 1 1 0
514 4 5.048253793056812 0.12172994954134922 7.940095259916144 1 1 0
232 1 1.1458043243395426 10.37999839164422 1.383854303787586 0 -1 0
203 1 -1.980927105936991 9.716456244342845 1.293518648192362 0 -1 0
233 2 2.945594973843361 9.862005240143697 -0.11024710467306152 0 -1 0
234 3 2.8393464400321875 9.858061559716182 2.998019495835613 0 -1 0
294 6 5.139235141777811 5.216724092660326 9.606410812564059 0 1 0
230 2 5.0574943393473495 7.582702457349716 -0.03984840063652545 0 -1 0
326 5 5.79472984842087 8.502127184019798 6.310114129853073 0 1 0
327 6 5.788335898743553 8.480435394914858 9.62406844144835 0 1 0
289 4 5.716913428521585 3.393850182254998 7.941349405118526 1 1 0
355 4 7.027844011723077 9.923292851334601 7.974099138906803 0 1 0
356 5 8.872557869447212 9.481484223281615 6.315783286256884 0 1 0
357 6 8.86829987762488 9.463149918294233 9.629963150895383 0 1 0
385 5 11.949789277581052 10.448983148020968 6.319666136609373 0 1 0
386 6 11.950456481853472 10.438195938111068 9.633878536266641 0 1 0
382 4 12.543163175461485 8.619949623827013 7.967560846113241 0 1 0
322 4 6.378769728485125 6.662846090637743 7.95668727206696 0 1 0
352 4 9.459930452091944 7.646026160721794 7.9625621113970695 0 1 0
353 5 11.301943098017126 7.204515649739913 6.301667166437997 0 1 0
354 6 11.299902522856538 7.18290521902946 9.616068643395861 0 1 0
161 1 6.56808283027112 0.6097976161585225 1.5664913887501826 0 0 0
191 1 9.714013592231158 1.3095310811109313 1.5683716403038996 0 0 0
192 2 11.468032518968025 0.8406658473566513 -0.0005528088820117918 0 0 0
193 3 11.482861137425665 0.7763371535853283 3.110281444311249 0 0 0
323 5 8.222840077694737 6.22628096898702 6.296556732343514 0 1 0
324 6 8.218195024498794 6.204064393251177 9.61094176993954 0 1 0
349 4 11.882149780653638 5.36679896026439 7.946282065914773 0 1 0
165 2 6.180179693522799 2.366011577422373 0.007281681280650818 0 0 0
166 3 6.153277005726602 2.3693437071372285 3.1187644694648284 0 0 0
194 1 7.550407993224623 3.565037849434363 1.5748245241647634 0 0 0
195 2 9.322790703955322 3.083679262444162 0.029990160493709977 0 0 0
196 3 9.302981852335023 3.0535968281446046 3.1412095272591793 0 0 0
319 4 8.797387645088797 4.384555658090912 7.943172490307409 0 1 0
320 5 10.637373285679292 3.945204828563652 6.282239387925432 0 1 0
321 6 10.637725997347317 3.9293895092590008 9.596857143050013 0 1 0
197 1 5.395327742343663 5.823318962360157 1.5341635080397398 0 0 0
198 2 7.18334235279849 5.32655460340705 0.013559820054437404 0 0 0
199 3 7.126309448582617 5.32334657740022 3.1242137006090127 0 0 0
224 1 10.69039718075734 4.274049076121605 1.6058999191980639 0 0 0
227 2 10.312065098467318 6.045658053333441 0.05743662364134244 0 0 0
228 3 10.28062491508189 6.028547872017638 3.1681247748782675 0 0 0
225 2 12.451229457617838 3.7963157724554715 0.04950580220385393 0 0 0
226 3 12.450260579409127 3.7541280225527043 3.160498146910199 0 0 0
221 1 12.850206444883172 2.012135681798558 1.5769064045711927 0 0 0
291 6 7.556775081260374 2.943734662040861 9.596166785631244 0 1 0
290 5 7.557432961769261 2.953921022508681 6.281635249776295 0 1 0
316 4 11.209560134683079 2.106715329159223 7.9328211094070085 0 1 0
317 5 13.048105624959177 1.667789493246645 6.272803885378599 0 1 0
231 3 4.968914304259774 7.589617969594357 3.069598264199585 0 -1 0
256 1 8.53561652931703 6.531005180166932 1.593078192225237 0 -1 0
276 1 11.67037904148881 7.253178537507239 1.6282269822970472 0 -1 0
540 4 8.126745738329904 1.115467681376011 7.935785684932082 1 1 0
318 6 13.053526809436347 1.6631761282635245 9.587436489722405 0 1 0
280 2 11.299026945287132 9.022162213767706 0.07189610098548996 0 -1 0
281 3 11.2818430259322 9.020703484021913 3.1820310820370388 0 -1 0
257 1 6.395630601101345 8.792351640256882 1.5492540002687074 0 -1 0
258 2 8.184592494652499 8.299683747720334 0.032524998784371484 0 -1 0
259 3 8.12226682315869 8.292010296013304 3.1423579368844177 0 -1 0
287 5 9.963022242687742 0.670697952406607 6.276481109138638 0 1 0
288 6 9.969289226876413 0.6718765114501754 9.590979003746819 0 1 0
261 2 6.069163986922769 10.567713807837977 -0.011787127617884748 0 -1 0
262 3 5.982832931504086 10.55264709315359 3.097077345591937 0 -1 0
279 1 9.530651090261873 9.512224014704888 1.6127762812228381 0 -1 0
34 1 12.664004491217408 10.243603015799987 1.628309583405784 -1 -1 0
350 5 13.723202730475743 4.928571609487605 6.284422384413145 0 1 0
351 6 13.724107651354254 4.911183821125913 9.599066357179666 0 1 0
412 4 15.627821235144957 9.592928886500061 7.969647325790479 0 1 0
444 4 18.712805155501805 10.574534368385887 7.969557197009536 0 0 0
413 5 17.46994267462021 9.148416468076821 6.307906820567965 0 1 0
414 6 17.473552618267735 9.140040890230397 9.621944792867184 0 1 0
442 5 20.55844221502858 10.134894523311521 6.310160885494885 0 1 0
443 6 20.561767117931655 10.133926289420081 9.623542572663839 0 1 0
384 6 14.38558205349071 8.158882607901566 9.619952670027834 0 1 0
383 5 14.384172790759164 8.175178222198593 6.305662682076719 0 1 0
439 4 21.162024259826925 8.316688324017246 7.9589494432171906 0 1 0
379 4 14.972304345384728 6.344318532214199 7.9499800466977995 0 1 0
409 4 18.066462463522903 7.324833416667938 7.953899939443993 0 1 0
410 5 19.91496062638418 6.893615350759564 6.293389065932359 0 1 0
411 6 19.91401858747507 6.883341354579066 9.60739937290533 0 1 0
223 3 14.617575822621404 1.4645925739217966 3.113107928386624 0 0 0
247 1 18.11665116014597 0.42362509954525046 1.5087031776792486 0 0 0
380 5 16.8162602775517 5.908391288030465 6.288093789956342 0 1 0
381 6 16.816890166814023 5.8937026575954965 9.602557684381944 0 1 0
406 4 20.505630440465897 5.071859328706641 7.940037843165655 0 1 0
3 1 19.076769675154793 3.4172624009099133 1.5560397511260124 -1 0 0
222 2 14.596103541452054 1.5399858256139052 0.0026638208451514166 0 0 0
250 1 15.971416029876892 2.7159239699675948 1.5779038164528183 0 0 0
251 2 17.70435899333025 2.2232133351753487 -0.00254751241708348 0 0 0
252 3 17.73901695349341 2.1658645603940423 3.10806071579936 0 0 0
346 4 14.300308131248695 3.094229057626862 7.932331262044447 0 1 0
376 4 17.399897725933116 4.080596479656913 7.934864706801365 0 1 0
377 5 19.248568251478776 3.654196587238061 6.275799854348433 0 1 0
378 6 19.247670902561367 3.647205980293592 9.590358435875016 0 1 0
6 1 16.936841323327364 5.707399106521794 1.5950884451157326 -1 0 0
7 2 18.65733460166065 5.187341262532887 0.009805670436114666 -1 0 0
8 3 18.7152783265478 5.195284908766926 3.120404942513004 -1 0 0
253 1 13.819645481377039 4.990618794236242 1.61867037994338 0 0 0
254 2 15.5614348018505 4.498493840673506 0.047409021057737526 0 0 0
255 3 15.58929821625484 4.471025333024669 3.1583219481642524 0 0 0
4 2 20.796577438488246 2.8928032410651756 -0.02798266891027868 -1 0 0
5 3 20.84370214037083 2.8769094855386443 3.083300205961617 -1 0 0
60 2 19.626245242312567 8.16463330105403 -0.04011481031247486 -1 -1 0
347 5 16.143296185641773 2.6615157617635523 6.272498876075437 0 1 0
348 6 16.145756896547812 2.6543060448429685 9.587258370349254 0 1 0
32 2 16.526970809138675 7.470195771392749 0.03946053587828234 -1 -1 0
33 3 16.579540862377474 7.489640323733739 3.1495890738455334 -1 -1 0
31 1 14.798129354469332 7.980832195667029 1.6187560201948865 -1 -1 0
277 2 13.425388659168638 6.762115538230677 0.07148639305294444 0 -1 0
278 3 13.433775197093343 6.7548553404977065 3.182120462834015 0 -1 0
58 1 20.045106350086897 6.413833505602623 1.5287718723091381 -1 -1 0
275 1 21.212524597444176 1.1094499433898364 1.505262229360783 0 0 0
343 4 16.72311988682471 0.8353554269234343 7.928016123622122 0 1 0
373 4 19.83133239655142 1.8332944821760027 7.929577549272545 0 1 0
89 1 21.038712349210545 9.401783456786784 1.4522756071582956 -1 -1 0
59 1 17.920012164793707 8.700991418433402 1.5565226980861364 -1 -1 0
61 3 19.712619305653522 8.213807104808792 3.068934868562776 -1 -1 0
35 2 14.405302344649785 9.743506465397312 0.059680644033221056 -1 -1 0
344 5 18.57008468893775 0.4098762349033488 6.272279743612775 0 1 0
345 6 18.57277727044052 0.413596908034853 9.587150220589102 0 1 0
63 2 17.511149327360233 10.456429596045917 -0.00725008955409894 -1 -1 0
64 3 17.59151611712031 10.492840349363824 3.1020025440242747 -1 -1 0
36 3 14.440561773037773 9.761362467241709 3.1696461953416435 -1 -1 0
116 1 26.25692306232409 7.766805407494143 1.3324675522997347 -1 -1 0
118 3 28.012520126123313 7.271308363511679 2.872487761331073 -1 -1 0
117 2 27.974001291978297 7.174135019925373 -0.23586282892254365 -1 -1 0
83 1 28.36332736358309 5.447814935615797 1.372618222562926 -1 0 0
53 2 29.124036558837037 1.880283253542703 -0.07880037391222133 -1 0 0
55 1 25.265016878568268 4.785309372188465 1.4383323377414827 -1 0 0
57 3 27.018174811756307 4.280412671164495 2.9820495256418456 -1 0 0
56 2 26.98381485864912 4.196697628972284 -0.1277465304353803 -1 0 0
407 5 22.36016244176692 4.652782190716183 6.282001523982035 0 1 0
408 6 22.35567132115163 4.645472190536985 9.596082605594564 0 1 0
28 3 23.934366557312504 3.585180064476403 3.037750113035258 -1 0 0
52 1 27.38661099218094 2.461541890045783 1.4677737892396916 -1 0 0
24 2 26.03040770863712 1.232589300257363 -0.06958861217866064 -1 0 0
25 3 26.041213862715168 1.2465510348235134 3.04195045028361 -1 0 0
469 4 24.256951652600705 9.324657191935563 7.965743980436716 0 1 0
470 5 26.114854696614984 8.908059925050036 6.310575528137079 0 1 0
471 6 26.109961915189587 8.903052140682995 9.622600054412349 0 1 0
440 5 23.015817517355618 7.892658088828693 6.301149570890824 0 1 0
441 6 23.01234946609134 7.885780303867177 9.614261520151484 0 1 0
466 4 26.7175180081788 7.08982289074173 7.958104004525329 0 1 0
467 5 28.5796896315643 6.682835140009274 6.302194300930436 0 1 0
468 6 28.57064237964508 6.67166027983082 9.614580556437788 0 1 0
1 2 22.94151271171255 0.586811238699443 -0.06881151528933147 -1 0 0
2 3 22.95863317784947 0.5389356851255471 3.0432171241971857 -1 0 0
23 1 24.299044238510618 1.7880321607452356 1.4918275783490795 -1 0 0
27 2 23.886251948100913 3.547840046851607 -0.07291868612684665 -1 0 0
436 4 23.612900014457985 6.0741140905016575 7.947966230001304 0 1 0
437 5 25.472602672763887 5.662214580866894 6.291377545890247 0 1 0
438 6 25.46454312033645 5.653295574428978 9.604622008475216 0 1 0
463 4 29.173397851370886 4.861748629379022 7.948225833631297 0 1 0
29 2 21.750571785404265 5.860670985359384 -0.06316544291204118 -1 0 0
30 3 21.826137031660206 5.9110735279360265 3.0464975533459 -1 0 0
433 4 26.062500454573485 3.8441416973867946 7.939538598097915 0 1 0
434 5 27.92379852072915 3.4367718313377056 6.283143344018709 0 1 0
435 6 27.91486074821844 3.43056325650508 9.596980941392045 0 1 0
26 1 22.17201180373523 4.108855724504276 1.5062390775882089 -1 0 0
86 1 23.149895627328764 7.10090927018023 1.4318167945662565 -1 -1 0
87 2 24.85344740550624 6.52022075147486 -0.15444848863678398 -1 -1 0
88 3 24.923281221449596 6.604514217033817 2.9541929065932937 -1 -1 0
403 4 22.94649319005079 2.8350220044209307 7.933063605637766 0 1 0
405 6 24.799261747423582 2.4212278649353105 9.590649539234025 0 1 0
404 5 24.80416256903166 2.4235830647178433 6.276417675254525 0 1 0
54 3 29.12263500233602 1.9469769319656864 3.032022512452148 -1 0 0
374 5 21.684054596910542 1.414985314909745 6.2732182525465365 0 1 0
375 6 21.683055686753793 1.417069315081449 9.588157293183542 0 1 0
430 4 28.507957758830692 1.6197981699391346 7.936083352184488 0 1 0
90 2 22.734826059100683 8.843013835872394 -0.14961664158787338 -1 -1 0
91 3 22.82974350705403 8.910764692546742 2.95855669171639 -1 -1 0
119 1 24.157138604177547 10.078194145530487 1.3356729889604682 -1 -1 0
400 4 25.38955048620349 0.6094175953841805 7.9329456100505835 0 1 0
401 5 27.247391819837617 0.19805099580923236 6.277859731022642 0 1 0
402 6 27.24349574637402 0.2024588311433036 9.592398346410553 0 1 0
84 2 30.096935076283753 4.847413275664511 -0.17361281680011528 -1 0 0
85 3 30.10198818127162 4.955699351710519 2.9352728949041462 -1 0 0
80 1 30.481501194614943 3.128015518180418 1.4428607361559764 -1 0 0
81 2 32.230127035737645 2.538501280272453 -0.08945178884384085 -1 0 0
82 3 32.212032225418675 2.63520651529065 3.020462009023565 -1 0 0
78 2 34.37064363513511 0.2518924330936781 -0.009472021247240791 -1 0 0
77 1 32.61272084837119 0.8155308802207903 1.5208603127724476 -1 0 0
49 1 29.514371693792555 0.1376632127878662 1.5106072470283773 -1 0 0
464 5 31.035108445990932 4.454988429308122 6.2909110570153395 0 1 0
465 6 31.025131729695104 4.444387344552892 9.604305290312736 0 1 0
460 4 31.618901998535353 2.632243463098113 7.940460827680965 0 1 0
461 5 33.4757115274601 2.2153459163914526 6.2829415005855624 0 1 0
462 6 33.467265179435735 2.2123010517303165 9.597483785391933 0 1 0
431 5 30.36642690822085 1.2067731293337844 6.279948984541004 0 1 0
432 6 30.359134650605196 1.2076269747604473 9.594584335910827 0 1 0
457 4 34.0520159582583 0.3929309361185454 7.939955053041194 0 1 0
458 5 8.4051698289654 21.487011704645205 6.283819404143104 0 0 0
134 1 -24.074860515258273 21.439889061581045 1.5754073333395586 0 -1 0
135 2 -22.3182851667594 20.937548811052952 0.01702105153955138 0 -1 0
136 3 -22.30614036538431 20.947088251548713 3.128665817959247 0 -1 0
105 2 -25.456440103538135 20.22072070854718 0.0368889412761935 0 -1 0
106 3 -25.452095866248477 20.25718662282268 3.1482507537002102 0 -1 0
131 1 -21.91654973511908 19.18223996571055 1.5730030709877778 0 -1 0
132 2 -20.178591301570552 18.695359877267023 -0.010076813745306135 0 -1 0
133 3 -20.128481896268642 18.67918806375717 3.1010273576291816 0 -1 0
515 5 -20.61167739066025 21.199823728902963 6.282053712419081 1 0 0
516 6 -20.606360865927083 21.208083493520036 9.596647238221532 1 0 0
128 1 -19.771085909391502 16.92441185078932 1.5264721448170222 0 -1 0
511 4 -20.03501285880802 19.371719804467908 7.945046529245792 1 0 0
485 5 -23.689422177917862 20.20456937306935 6.288020756598164 1 0 0
486 6 -23.68635074029385 20.218772252383406 9.6029512289395 1 0 0
482 5 -21.277478991342484 17.922581483360084 6.296834788083741 1 0 0
483 6 -21.267849419463914 17.942336139962798 9.61146846017143 1 0 0
484 4 -25.527591465191144 20.65681398588761 7.9445556734981695 1 0 0
481 4 -23.111418060031472 18.381884144589772 7.954009654453885 1 0 0
162 2 8.324962115901071 0.12820747201578947 0.0022442694819772677 0 0 0
163 3 8.338436911902946 0.09791911068606726 3.11369068582839 0 0 0
218 1 -12.494013038043065 21.265216950928085 1.506578000436867 0 -1 0
473 5 -13.945615814608228 11.140083380146674 6.3136432546562045 1 0 0
474 6 -13.943543532552157 11.144424119308951 9.625979723472994 1 0 0
502 4 -12.708971105932829 12.585047640528739 7.96980590117394 1 0 0
158 1 -18.768484882403186 19.88186218627684 1.5354757809525807 0 -1 0
159 2 -17.031587988304427 19.409836366664354 -0.05263261871412017 0 -1 0
160 3 -16.983308287116685 19.352278627931497 3.057945511511166 0 -1 0
188 1 -15.625156464254399 20.575696417229448 1.5120679390121667 0 -1 0
189 2 -13.887842034365477 20.111603821399665 -0.07547556752126736 0 -1 0
190 3 -13.849301324247607 20.01806676675287 3.0342246485220525 0 -1 0
155 1 -16.62640745567524 17.61863229312951 1.4605873758461287 0 -1 0
156 2 -14.906584476177148 17.140781587924966 -0.14324305698856946 0 -1 0
157 3 -14.837090490840085 17.075260215027146 2.966174848687891 0 -1 0
185 1 -13.488447930551459 18.300878917042716 1.4175178377910378 0 -1 0
186 2 -11.760461337363362 17.82977929932054 -0.1774198682791794 0 -1 0
187 3 -11.71734439623023 17.724758107077054 2.9305911649671628 0 -1 0
129 2 -18.052506369317392 16.436862379460116 -0.07619279734969459 0 -1 0
130 3 -17.971973837455003 16.41313630209318 3.033901461546955 0 -1 0
152 1 -14.509489122228299 15.340355540543191 1.364988045694502 0 -1 0
153 2 -12.800393688194248 14.838119982358764 -0.2416956070455435 0 -1 0
154 3 -12.728121640599678 14.793516692579392 2.8676380178589036 0 -1 0
506 5 -13.321846179548343 14.397097233386704 6.307893518529952 1 0 0
507 6 -13.313260232819816 14.413978805084614 9.62008240151865 1 0 0
535 4 -12.081186471054599 15.849179224081423 7.9554885913329345 1 0 0
125 1 -17.645559086167406 14.657781607862518 1.4538824203350824 0 -1 0
122 1 -15.536743539587489 12.376228656851312 1.3814536126202828 0 -1 0
126 2 -15.942522263048728 14.151400601436597 -0.1585020023519215 0 -1 0
127 3 -15.845692238003531 14.14357146511091 2.9507247948232496 0 -1 0
283 5 -12.687201495034774 17.66321628642742 6.288706068614884 0 0 0
284 6 -12.676433713714516 17.68053477389508 9.60172531668755 0 0 0
124 3 -13.745584626746748 11.8655606587798 2.8817526907694195 0 -1 0
123 2 -13.83896461471216 11.838584921375473 -0.2268120034845799 0 -1 0
538 4 -14.528643898406484 18.10128156605118 7.943963684432289 1 0 0
285 5 -15.119722310735469 19.92313501123956 6.278928869841687 0 0 0
286 6 -15.109079015550027 19.934788706039964 9.592957882330598 0 0 0
313 4 -13.869828036737143 21.36515102755633 7.930258521381105 0 0 0
314 5 -12.028956866091427 20.93082743116164 6.273124398176359 0 0 0
315 6 -12.020823890099926 20.93667198287092 9.587251565541349 0 0 0
310 4 -11.438330529465627 19.10958575207113 7.936492856102615 0 0 0
539 4 -16.9562260988738 20.36738444755015 7.936546327761155 1 0 0
509 5 -15.772230489026885 16.64930041243655 6.296947076132658 1 0 0
512 5 -18.200899861950802 18.918696250945118 6.287397717140483 1 0 0
513 6 -18.189785306284996 18.93534668404952 9.601604376964314 1 0 0
510 6 -15.760225820323674 16.669213901190307 9.610288332082446 1 0 0
149 1 -12.40923926391391 13.044549918266917 1.2829694408363206 0 -1 0
508 4 -17.609859967220405 17.098004230784426 7.953222473191197 1 0 0
505 4 -15.166991214381943 14.834840942297886 7.962495338555921 1 0 0
479 5 -18.851093000542786 15.647231114743192 6.305512859021909 1 0 0
504 6 -10.85354664137981 12.169411815372301 9.627719833799926 1 0 0
476 5 -16.405791768786717 13.385557544572597 6.311679333817172 1 0 0
477 6 -16.396987931921196 13.39899645845025 9.624784397250892 1 0 0
480 6 -18.839108719690095 15.66654545883495 9.619514858363987 1 0 0
530 5 -5.2895573804611775 10.966225971760844 6.322498850974065 1 0 0
531 6 -5.292610924444866 10.963371147397188 9.633809137999014 1 0 0
529 4 -7.148930548115913 11.376684877819176 7.976316206667135 1 0 0
219 2 -10.757744014171585 20.793590300222412 -0.0772914389645708 0 -1 0
220 3 -10.728687073784204 20.689644586896346 3.0320868105580443 0 -1 0
248 2 -7.646515621062048 21.457989605344807 -0.07140880138489498 0 -1 0
249 3 -7.6228976053236694 21.372034068357713 3.037690965213596 0 -1 0
272 1 -4.158144170690721 20.314873500102962 1.4511544587911716 0 -1 0
182 1 -11.38267898034444 16.007155587485585 1.31021168078347 0 -1 0
301 4 -4.055024448884964 12.407543267798733 7.977204197415746 0 0 0
503 5 -10.85556768395351 12.160610870186195 6.316198121230829 1 0 0
215 1 -10.360088699749443 18.974313852010706 1.4103688536467358 0 -1 0
244 1 -7.241739596650615 19.642332709569885 1.425666283541381 0 -1 0
214 3 -5.507499911226305 19.055568480064704 2.9692020002091524 0 -1 0
245 2 -5.506174289915593 19.14825701094939 -0.14668201414923496 0 -1 0
246 3 -5.507499916243737 19.05556853615209 2.9692019326412655 0 -1 0
533 5 -7.76302360991945 13.188112514008289 6.31566280471317 1 0 0
534 6 -7.760973858190022 13.201533675195787 9.626013990196064 1 0 0
532 4 -9.618663981611544 13.609157175840075 7.96749941240457 1 0 0
216 2 -8.62628837616711 18.497437070511456 -0.1727724854545001 0 -1 0
217 3 -8.601660283247337 18.377840350607485 2.937168003804332 0 -1 0
241 1 -5.127548018950417 17.33570718443133 1.360358322082226 0 -1 0
536 5 -10.233257506356457 15.41959670203527 6.301414157068507 1 0 0
304 4 -6.523190514757478 14.637375043628433 7.961706570066914 0 0 0
305 5 -4.6642998873820884 14.219989834393822 6.314145035939016 0 0 0
306 6 -4.667803056298812 14.23174782574385 9.62460375451579 0 0 0
537 6 -10.223498155805435 15.438576053182954 9.612388022352226 1 0 0
183 2 -9.656287753589178 15.50881604316661 -0.2784291525311643 0 -1 0
184 3 -9.633648369430393 15.429247127218387 2.8317263286695122 0 -1 0
212 1 -8.273541575114194 16.663931888268284 1.3102771853623956 0 -1 0
213 2 -6.50686975956824 16.175723028251603 -0.23928798317810732 0 -1 0
307 4 -8.985220095907431 16.868665175832255 7.944446254423924 0 0 0
308 5 -7.127796180170405 16.44686073014477 6.285676915562822 0 0 0
309 6 -7.131091971495273 16.46260181431755 9.60536751102122 0 0 0
334 4 -3.4248611375935543 15.664052485834725 7.962067989102684 0 0 0
150 2 -10.695583290484615 12.509285738773716 -0.309129019876331 0 -1 0
151 3 -10.642201480170348 12.507113434296574 2.799792739745608 0 -1 0
179 1 -9.285518515706023 13.698791083667233 1.2332943327907038 0 -1 0
180 2 -7.546414640477561 13.172760031862312 -0.3337782237938639 0 -1 0
181 3 -7.547800419150117 13.140765814080858 2.7777311928143544 0 -1 0
209 1 -6.161998063105537 14.341127887219127 1.2467012328222373 0 -1 0
211 3 -4.449483893061925 13.778647875249517 2.8180108009074547 0 -1 0
337 4 -5.88639130240199 17.89062162106875 7.943642346157463 0 0 0
338 5 -4.030038671856382 17.476825282865548 6.293410544045041 0 0 0
339 6 -4.030565243032825 17.485857167109906 9.606317353420312 0 0 0
176 1 -7.195816876507995 11.383400673934691 1.2116909048579456 0 -1 0
177 2 -5.440802383005511 10.831486917106728 -0.3280899904664344 0 -1 0
178 3 -5.474702572055464 10.848210239079378 2.78045831839455 0 -1 0
311 5 -9.591704912217505 18.684970460866932 6.281692574515174 0 0 0
312 6 -9.584554834572838 18.692639740389502 9.594825967871442 0 0 0
341 5 -6.492566994569621 19.70811235977729 6.285415296355127 0 0 0
340 4 -8.33933223544688 20.121010278407354 7.936012002216142 0 0 0
342 6 -6.4826288560155145 19.709604851848347 9.594522781069658 0 0 0
370 4 -5.22538295457882 21.1297615173209 7.934688374689617 0 0 0
371 5 -3.3725380466646797 20.714780047988125 6.277628647795512 0 0 0
372 6 -3.3693953470914937 20.72280929254325 9.592961635622242 0 0 0
210 2 -4.396468826767865 13.833434513031369 -0.29228279167633764 0 -1 0
206 1 -4.072287102404349 12.031585146546696 1.2439109362596028 0 -1 0
242 2 -3.3785220959998097 16.825228859398045 -0.19169281567475585 0 -1 0
328 4 1.498014254759138 11.190324406852607 7.97627917502506 0 0 0
329 5 3.349979310211838 10.765536667488215 6.3186991112097814 0 0 0
20 1 -1.07024500926565 20.989693377804873 1.4869572842467915 -1 -1 0
21 2 0.6812737529127297 20.446151475185456 -0.0538754927083972 -1 -1 0
22 3 0.6531622993597241 20.436791544057417 3.0573616790861897 -1 -1 0
50 2 3.7722926275647746 21.104839193173273 -0.022562549310595915 -1 -1 0
51 3 3.7453090631346755 21.145312390414595 3.0885996008520324 -1 -1 0
243 3 -3.4133923901357153 16.734155016498033 2.916902830682568 0 -1 0
303 6 -2.1993561276465514 11.992266297643965 9.634173719313175 0 0 0
302 5 -2.197882535710194 11.995209387372034 6.322361150968427 0 0 0
333 6 0.8917406938547171 13.01005108820441 9.632117850018307 0 0 0
358 4 4.584779221291199 12.190550335075107 7.977143829845724 0 0 0
273 2 -2.408043323724035 19.797617414610706 -0.10018909005477987 0 -1 0
274 3 -2.4323938019623985 19.734888590117286 3.0104354350439206 0 -1 0
46 1 4.148723140433582 19.350727969258877 1.554899445250812 -1 -1 0
331 4 -0.9613619281735175 13.432543364800695 7.974652667145685 0 0 0
332 5 0.8928046017073223 13.013091629171106 6.319259606082741 0 0 0
363 6 3.9822454053469625 14.012090430323886 9.630698508877412 0 0 0
362 5 3.9840536206249024 14.011633738130543 6.316765333208653 0 0 0
269 1 -2.0372838348022757 17.991371059666342 1.419811411410162 0 -1 0
270 2 -0.2714619277268277 17.475577825357487 -0.11005362397338357 0 -1 0
271 3 -0.33230074386105213 17.411113655991752 2.99969115497782 0 -1 0
17 1 1.0526855248952343 18.664753368833953 1.4957544496247481 -1 -1 0
18 2 2.821196872838874 18.138409569853728 -0.02865435272314986 -1 -1 0
19 3 2.7649432194326087 18.114224317525462 3.08173593537362 -1 -1 0
367 4 -2.7756013731661904 18.905945326202847 7.943808494753976 0 0 0
335 5 -1.569043600204463 15.247219460851193 6.310117846173425 0 0 0
336 6 -1.5693203715261004 15.254684739714948 9.622755424006213 0 0 0
361 4 2.1336060629892786 14.44274636902508 7.971365719487329 0 0 0
238 1 -3.0445419491699353 15.003609979821555 1.316740206514244 0 -1 0
239 2 -1.2660133844942771 14.49191110935026 -0.20346833957023958 0 -1 0
266 1 0.06329021498197983 15.66732566512631 1.41607112308816 0 -1 0
14 1 3.1681639987440775 16.350832695483305 1.5177669899306012 -1 -1 0
267 2 1.8480507838368088 15.158631354090904 -0.09490009538080499 0 -1 0
268 3 1.7600748344312236 15.104487941047243 3.0133785072531465 0 -1 0