ITEM: TIMESTEP
0
ITEM: NUMBER OF ATOMS
540
ITEM: BOX BOUNDS xy xz yz pp pp ss
-2.7496150547204270e+01 3.7593658013431089e+01 -2.7496150547204270e+01
0.0000000000000000e+00 2.1527795248303640e+01 0.0000000000000000e+00
-1.0000000000000000e-02 9.5817839999999990e+00 0.0000000000000000e+00
ITEM: ATOMS id type x y z
14 1 -11.999 10.2293 1.58593
285 5 -11.6058 9.42902 6.22707
286 6 -11.6058 9.42902 9.57178
9 2 -5.99957 5.11494 -1.01385e-19
10 3 -5.99957 5.11494 3.17185
11 1 -9.87377 7.93915 1.58593
12 2 -8.12483 7.40513 -1.01385e-19
13 3 -8.12483 7.40513 3.17185
15 2 -10.2501 9.69532 -1.01385e-19
16 3 -10.2501 9.69532 3.17185
37 1 -4.62672 6.33602 1.58593
40 1 -6.75198 8.62621 1.58593
41 2 -5.00304 8.09218 -1.01385e-19
42 3 -5.00304 8.09218 3.17185
44 2 -7.12829 10.3824 -1.01385e-19
45 3 -7.12829 10.3824 3.17185
68 1 -3.63019 9.31327 1.58593
283 5 -9.16544 7.17612 6.22707
284 6 -9.16544 7.17612 9.57178
307 4 -5.47677 6.34134 7.89943
308 5 -3.63261 5.9245 6.22707
309 6 -3.63261 5.9245 9.57178
310 4 -7.91714 8.59425 7.89943
311 5 -6.07298 8.17741 6.22707
312 6 -6.07298 8.17741 9.57178
314 5 -8.51335 10.4303 6.22707
315 6 -8.51335 10.4303 9.57178
340 4 -4.82467 9.59554 7.89943
31 1 -0.376204 1.75564 1.58593
32 2 1.37274 1.22161 -1.01385e-19
33 3 1.37274 1.22161 3.17185
34 1 -2.50146 4.04583 1.58593
35 2 -0.752522 3.5118 -1.01385e-19
36 3 -0.752522 3.5118 3.17185
38 2 -2.87778 5.80199 -1.01385e-19
39 3 -2.87778 5.80199 3.17185
58 1 4.87084 0.152504 1.58593
59 1 2.74558 2.4427 1.58593
60 2 4.49452 1.90867 -1.01385e-19
61 3 4.49452 1.90867 3.17185
62 1 0.620327 4.73289 1.58593
63 2 2.36927 4.19886 -1.01385e-19
64 3 2.36927 4.19886 3.17185
65 1 -1.50493 7.02308 1.58593
66 2 0.24401 6.48905 -1.01385e-19
67 3 0.24401 6.48905 3.17185
69 2 -1.88125 8.77924 -1.01385e-19
70 3 -1.88125 8.77924 3.17185
92 1 3.74211 5.41994 1.58593
95 1 1.61686 7.71013 1.58593
96 2 3.3658 7.17611 -1.01385e-19
97 3 3.3658 7.17611 3.17185
98 1 -0.508399 10.0003 1.58593
99 2 1.24054 9.4663 -1.01385e-19
100 3 1.24054 9.4663 3.17185
125 1 4.73865 8.39719 1.58593
128 1 2.61339 10.6874 1.58593
129 2 4.36233 10.1534 -1.01385e-19
130 3 4.36233 10.1534 3.17185
301 4 -0.596031 1.83552 7.89943
302 5 1.24813 1.41868 6.22707
303 6 1.24813 1.41868 9.57178
304 4 -3.0364 4.08843 7.89943
305 5 -1.19224 3.67159 6.22707
306 6 -1.19224 3.67159 9.57178
328 4 4.9368 0.583904 7.89943
331 4 2.49643 2.83681 7.89943
332 5 4.34059 2.41998 6.22707
333 6 4.34059 2.41998 9.57178
334 4 0.056065 5.08972 7.89943
335 5 1.90022 4.67288 6.22707
336 6 1.90022 4.67288 9.57178
337 4 -2.3843 7.34263 7.89943
338 5 -0.540145 6.92579 6.22707
339 6 -0.540145 6.92579 9.57178
341 5 -2.98051 9.1787 6.22707
342 6 -2.98051 9.1787 9.57178
364 4 3.14853 6.09101 7.89943
365 5 4.99269 5.67418 6.22707
366 6 4.99269 5.67418 9.57178
367 4 0.708161 8.34392 7.89943
368 5 2.55232 7.92709 6.22707
369 6 2.55232 7.92709 9.57178
370 4 -1.73221 10.5968 7.89943
371 5 0.111951 10.18 6.22707
372 6 0.111951 10.18 9.57178
397 4 3.80063 9.34522 7.89943
86 1 7.99263 0.839561 1.58593
87 2 9.74157 0.305534 -1.01385e-19
88 3 9.74157 0.305534 3.17185
89 1 5.86737 3.12975 1.58593
90 2 7.61631 2.59572 -1.01385e-19
91 3 7.61631 2.59572 3.17185
93 2 5.49106 4.88592 -1.01385e-19
94 3 5.49106 4.88592 3.17185
116 1 11.1144 1.52662 1.58593
117 2 12.8634 0.992592 -1.01385e-19
118 3 12.8634 0.992592 3.17185
119 1 8.98916 3.81681 1.58593
120 2 10.7381 3.28278 -1.01385e-19
121 3 10.7381 3.28278 3.17185
122 1 6.8639 6.107 1.58593
123 2 8.61284 5.57297 -1.01385e-19
124 3 8.61284 5.57297 3.17185
126 2 6.48759 7.86317 -1.01385e-19
127 3 6.48759 7.86317 3.17185
146 1 12.111 4.50387 1.58593
149 1 9.98569 6.79406 1.58593
150 2 11.7346 6.26003 -1.01385e-19
151 3 11.7346 6.26003 3.17185
152 1 7.86043 9.08425 1.58593
153 2 9.60938 8.55022 -1.01385e-19
154 3 9.60938 8.55022 3.17185
179 1 13.1075 7.48112 1.58593
182 1 10.9822 9.77131 1.58593
183 2 12.7312 9.23728 -1.01385e-19
184 3 12.7312 9.23728 3.17185
329 5 6.78096 0.167066 6.22707
330 6 6.78096 0.167066 9.57178
358 4 8.02927 1.5852 7.89943
359 5 9.87343 1.16836 6.22707
360 6 9.87343 1.16836 9.57178
361 4 5.5889 3.83811 7.89943
362 5 7.43306 3.42127 6.22707
363 6 7.43306 3.42127 9.57178
388 4 11.1217 2.58649 7.89943
389 5 12.9659 2.16965 6.22707
390 6 12.9659 2.16965 9.57178
391 4 8.68136 4.8394 7.89943
392 5 10.5255 4.42256 6.22707
393 6 10.5255 4.42256 9.57178
394 4 6.24099 7.09231 7.89943
395 5 8.08515 6.67547 6.22707
396 6 8.08515 6.67547 9.57178
398 5 5.64478 8.92838 6.22707
399 6 5.64478 8.92838 9.57178
421 4 11.7738 5.84069 7.89943
424 4 9.33346 8.0936 7.89943
425 5 11.1776 7.67676 6.22707
426 6 11.1776 7.67676 9.57178
427 4 6.89309 10.3465 7.89943
428 5 8.73725 9.92967 6.22707
429 6 8.73725 9.92967 9.57178
454 4 12.4259 9.09489 7.89943
143 1 14.2362 2.21368 1.58593
144 2 15.9851 1.67965 -1.01385e-19
145 3 15.9851 1.67965 3.17185
147 2 13.8599 3.96984 -1.01385e-19
148 3 13.8599 3.96984 3.17185
170 1 19.4833 0.610542 1.58593
171 2 21.2322 0.076515 -1.01385e-19
172 3 21.2322 0.076515 3.17185
173 1 17.358 2.90073 1.58593
174 2 19.1069 2.36671 -1.01385e-19
175 3 19.1069 2.36671 3.17185
176 1 15.2327 5.19092 1.58593
177 2 16.9817 4.6569 -1.01385e-19
178 3 16.9817 4.6569 3.17185
180 2 14.8564 6.94709 -1.01385e-19
181 3 14.8564 6.94709 3.17185
203 1 20.4798 3.58779 1.58593
206 1 18.3545 5.87798 1.58593
207 2 20.1035 5.34396 -1.01385e-19
208 3 20.1035 5.34396 3.17185
209 1 16.2293 8.16817 1.58593
210 2 17.9782 7.63415 -1.01385e-19
211 3 17.9782 7.63415 3.17185
212 1 14.104 10.4584 1.58593
213 2 15.853 9.92434 -1.01385e-19
214 3 15.853 9.92434 3.17185
238 1 19.3511 8.85523 1.58593
239 2 21.1 8.3212 -1.01385e-19
240 3 21.1 8.3212 3.17185
242 2 18.9747 10.6114 -1.01385e-19
243 3 18.9747 10.6114 3.17185
387 4 13.5621 0.333581 7.89943
415 4 16.6546 1.33487 7.89943
416 5 18.4987 0.918035 6.22707
417 6 18.4987 0.918035 9.57178
418 4 14.2142 3.58778 7.89943
419 5 16.0584 3.17094 6.22707
420 6 16.0584 3.17094 9.57178
422 5 13.618 5.42385 6.22707
423 6 13.618 5.42385 9.57178
445 4 19.747 2.33617 7.89943
448 4 17.3067 4.58908 7.89943
449 5 19.1508 4.17224 6.22707
450 6 19.1508 4.17224 9.57178
451 4 14.8663 6.84198 7.89943
452 5 16.7105 6.42515 6.22707
453 6 16.7105 6.42515 9.57178
455 5 14.2701 8.67806 6.22707
456 6 14.2701 8.67806 9.57178
478 4 20.3991 5.59037 7.89943
481 4 17.9588 7.84328 7.89943
482 5 19.8029 7.42644 6.22707
483 6 19.8029 7.42644 9.57178
484 4 15.5184 10.0962 7.89943
485 5 17.3625 9.67935 6.22707
486 6 17.3625 9.67935 9.57178
511 4 21.0512 8.84457 7.89943
515 5 20.455 10.6806 6.22707
516 6 20.455 10.6806 9.57178
200 1 22.605 1.2976 1.58593
201 2 24.354 0.763573 -1.01385e-19
202 3 24.354 0.763573 3.17185
204 2 22.2287 3.05376 -1.01385e-19
205 3 22.2287 3.05376 3.17185
229 1 25.7268 1.98466 1.58593
230 2 27.4758 1.45063 -1.01385e-19
231 3 27.4758 1.45063 3.17185
232 1 23.6016 4.27485 1.58593
233 2 25.3505 3.74082 -1.01385e-19
234 3 25.3505 3.74082 3.17185
235 1 21.4763 6.56504 1.58593
236 2 23.2253 6.03101 -1.01385e-19
237 3 23.2253 6.03101 3.17185
257 1 28.8486 2.67171 1.58593
260 1 26.7234 4.9619 1.58593
261 2 28.4723 4.42788 -1.01385e-19
262 3 28.4723 4.42788 3.17185
263 1 24.5981 7.2521 1.58593
264 2 26.347 6.71807 -1.01385e-19
265 3 26.347 6.71807 3.17185
266 1 22.4728 9.54229 1.58593
267 2 24.2218 9.00826 -1.01385e-19
268 3 24.2218 9.00826 3.17185
444 4 22.1874 0.083257 7.89943
446 5 21.5912 1.91933 6.22707
447 6 21.5912 1.91933 9.57178
472 4 25.2799 1.08455 7.89943
473 5 27.124 0.667712 6.22707
474 6 27.124 0.667712 9.57178
475 4 22.8395 3.33746 7.89943
476 5 24.6837 2.92062 6.22707
477 6 24.6837 2.92062 9.57178
479 5 22.2433 5.17353 6.22707
480 6 22.2433 5.17353 9.57178
502 4 28.3723 2.08584 7.89943
505 4 25.932 4.33875 7.89943
506 5 27.7761 3.92191 6.22707
507 6 27.7761 3.92191 9.57178
508 4 23.4916 6.59166 7.89943
509 5 25.3358 6.17482 6.22707
510 6 25.3358 6.17482 9.57178
512 5 22.8954 8.42773 6.22707
513 6 22.8954 8.42773 9.57178
535 4 29.0244 5.34005 7.89943
538 4 26.5841 7.59295 7.89943
539 4 24.1437 9.84586 7.89943
256 1 30.9739 0.381523 1.58593
258 2 30.5976 2.13769 -1.01385e-19
259 3 30.5976 2.13769 3.17185
276 1 34.0957 1.06858 1.58593
277 2 35.8446 0.534553 -1.01385e-19
278 3 35.8446 0.534553 3.17185
279 1 31.9704 3.35877 1.58593
280 2 33.7193 2.82474 -1.01385e-19
281 3 33.7193 2.82474 3.17185
282 1 29.8452 5.64896 1.58593
503 5 30.2165 1.66901 6.22707
504 6 30.2165 1.66901 9.57178
529 4 33.9052 0.834227 7.89943
530 5 35.7493 0.417389 6.22707
531 6 35.7493 0.417389 9.57178
532 4 31.4648 3.08714 7.89943
533 5 33.309 2.6703 6.22707
534 6 33.309 2.6703 9.57178
536 5 30.8686 4.92321 6.22707
537 6 30.8686 4.92321 9.57178
1 2 -19.7476 15.8788 -1.01385e-19
2 3 -19.7476 15.8788 3.17185
3 1 -23.6218 18.7031 1.58593
4 2 -21.8729 18.169 -1.01385e-19
5 3 -21.8729 18.169 3.17185
6 1 -25.7471 20.9932 1.58593
7 2 -23.9982 20.4592 -1.01385e-19
8 3 -23.9982 20.4592 3.17185
26 1 -20.5001 19.3901 1.58593
29 2 -20.8764 21.1463 -1.01385e-19
30 3 -20.8764 21.1463 3.17185
292 4 -20.7711 16.6046 7.89943
295 4 -23.2114 18.8575 7.89943
296 5 -21.3673 18.4407 6.22707
297 6 -21.3673 18.4407 9.57178
298 4 -25.6518 21.1104 7.89943
299 5 -23.8077 20.6936 6.22707
300 6 -23.8077 20.6936 9.57178
325 4 -20.119 19.8588 7.89943
17 1 -14.1243 12.5195 1.58593
18 2 -12.3753 11.9855 -1.01385e-19
19 3 -12.3753 11.9855 3.17185
20 1 -16.2495 14.8097 1.58593
21 2 -14.5006 14.2757 -1.01385e-19
22 3 -14.5006 14.2757 3.17185
23 1 -18.3748 17.0999 1.58593
24 2 -16.6259 16.5659 -1.01385e-19
25 3 -16.6259 16.5659 3.17185
27 2 -18.7511 18.8561 -1.01385e-19
28 3 -18.7511 18.8561 3.17185
49 1 -13.1277 15.4968 1.58593
50 2 -11.3788 14.9628 -1.01385e-19
51 3 -11.3788 14.9628 3.17185
52 1 -15.253 17.787 1.58593
53 2 -13.5041 17.2529 -1.01385e-19
54 3 -13.5041 17.2529 3.17185
55 1 -17.3783 20.0772 1.58593
56 2 -15.6293 19.5431 -1.01385e-19
57 3 -15.6293 19.5431 3.17185
80 1 -12.1312 18.474 1.58593
83 1 -14.2565 20.7642 1.58593
84 2 -12.5075 20.2302 -1.01385e-19
85 3 -12.5075 20.2302 3.17185
287 5 -14.0462 11.6819 6.22707
288 6 -14.0462 11.6819 9.57178
290 5 -16.4865 13.9348 6.22707
291 6 -16.4865 13.9348 9.57178
293 5 -18.9269 16.1878 6.22707
294 6 -18.9269 16.1878 9.57178
316 4 -12.7979 13.1001 7.89943
319 4 -15.2382 15.353 7.89943
320 5 -13.3941 14.9361 6.22707
321 6 -13.3941 14.9361 9.57178
322 4 -17.6786 17.6059 7.89943
323 5 -15.8345 17.189 6.22707
324 6 -15.8345 17.189 9.57178
326 5 -18.2748 19.442 6.22707
327 6 -18.2748 19.442 9.57178
349 4 -12.1458 16.3543 7.89943
352 4 -14.5861 18.6072 7.89943
353 5 -12.742 18.1903 6.22707
354 6 -12.742 18.1903 9.57178
355 4 -17.0265 20.8601 7.89943
356 5 -15.1824 20.4432 6.22707
357 6 -15.1824 20.4432 9.57178
382 4 -11.4937 19.6085 7.89943
385 5 -12.0899 21.4445 6.22707
386 6 -12.0899 21.4445 9.57178
43 1 -8.87723 10.9164 1.58593
46 1 -11.0025 13.2066 1.58593
47 2 -9.25355 12.6726 -1.01385e-19
48 3 -9.25355 12.6726 3.17185
71 1 -5.75545 11.6035 1.58593
72 2 -4.00651 11.0694 -1.01385e-19
73 3 -4.00651 11.0694 3.17185
74 1 -7.8807 13.8936 1.58593
75 2 -6.13176 13.3596 -1.01385e-19
76 3 -6.13176 13.3596 3.17185
77 1 -10.006 16.1838 1.58593
78 2 -8.25702 15.6498 -1.01385e-19
79 3 -8.25702 15.6498 3.17185
81 2 -10.3823 17.94 -1.01385e-19
82 3 -10.3823 17.94 3.17185
104 1 -4.75891 14.5807 1.58593
107 1 -6.88417 16.8709 1.58593
108 2 -5.13523 16.3369 -1.01385e-19
109 3 -5.13523 16.3369 3.17185
110 1 -9.00943 19.1611 1.58593
111 2 -7.26049 18.6271 -1.01385e-19
112 3 -7.26049 18.6271 3.17185
113 1 -11.1347 21.4513 1.58593
114 2 -9.38575 20.9173 -1.01385e-19
115 3 -9.38575 20.9173 3.17185
137 1 -3.76238 17.558 1.58593
140 1 -5.88764 19.8481 1.58593
141 2 -4.1387 19.3141 -1.01385e-19
142 3 -4.1387 19.3141 3.17185
313 4 -10.3575 10.8472 7.89943
317 5 -10.9537 12.6832 6.22707
318 6 -10.9537 12.6832 9.57178
343 4 -7.26504 11.8484 7.89943
344 5 -5.42088 11.4316 6.22707
345 6 -5.42088 11.4316 9.57178
346 4 -9.70541 14.1014 7.89943
347 5 -7.86125 13.6845 6.22707
348 6 -7.86125 13.6845 9.57178
350 5 -10.3016 15.9374 6.22707
351 6 -10.3016 15.9374 9.57178
373 4 -4.17258 12.8497 7.89943
376 4 -6.61294 15.1027 7.89943
377 5 -4.76879 14.6858 6.22707
378 6 -4.76879 14.6858 9.57178
379 4 -9.05331 17.3556 7.89943
380 5 -7.20915 16.9387 6.22707
381 6 -7.20915 16.9387 9.57178
383 5 -9.64952 19.1916 6.22707
384 6 -9.64952 19.1916 9.57178
406 4 -3.52048 16.1039 7.89943
409 4 -5.96085 18.3569 7.89943
410 5 -4.11669 17.94 6.22707
411 6 -4.11669 17.94 9.57178
412 4 -8.40122 20.6098 7.89943
413 5 -6.55706 20.1929 6.22707
414 6 -6.55706 20.1929 9.57178
442 5 -3.46459 21.1942 6.22707
443 6 -3.46459 21.1942 9.57178
101 1 -2.63366 12.2905 1.58593
102 2 -0.884716 11.7565 -1.01385e-19
103 3 -0.884716 11.7565 3.17185
105 2 -3.00997 14.0467 -1.01385e-19
106 3 -3.00997 14.0467 3.17185
131 1 0.488132 12.9776 1.58593
132 2 2.23707 12.4435 -1.01385e-19
133 3 2.23707 12.4435 3.17185
134 1 -1.63713 15.2678 1.58593
135 2 0.111815 14.7337 -1.01385e-19
136 3 0.111815 14.7337 3.17185
138 2 -2.01344 17.0239 -1.01385e-19
139 3 -2.01344 17.0239 3.17185
158 1 3.60992 13.6646 1.58593
161 1 1.48466 15.9548 1.58593
162 2 3.2336 15.4208 -1.01385e-19
163 3 3.2336 15.4208 3.17185
164 1 -0.640594 18.245 1.58593
165 2 1.10835 17.711 -1.01385e-19
166 3 1.10835 17.711 3.17185
167 1 -2.76585 20.5352 1.58593
168 2 -1.01691 20.0012 -1.01385e-19
169 3 -1.01691 20.0012 3.17185
191 1 4.60645 16.6419 1.58593
194 1 2.4812 18.9321 1.58593
195 2 4.23013 18.398 -1.01385e-19
196 3 4.23013 18.398 3.17185
197 1 0.355937 21.2223 1.58593
198 2 2.10488 20.6882 -1.01385e-19
199 3 2.10488 20.6882 3.17185
374 5 -2.32842 12.4329 6.22707
375 6 -2.32842 12.4329 9.57178
400 4 1.36026 11.5981 7.89943
401 5 3.20442 11.1813 6.22707
402 6 3.20442 11.1813 9.57178
403 4 -1.08011 13.851 7.89943
404 5 0.764048 13.4342 6.22707
405 6 0.764048 13.4342 9.57178
407 5 -1.67632 15.6871 6.22707
408 6 -1.67632 15.6871 9.57178
430 4 4.45272 12.5994 7.89943
433 4 2.01235 14.8523 7.89943
434 5 3.85651 14.4355 6.22707
435 6 3.85651 14.4355 9.57178
436 4 -0.428015 17.1052 7.89943
437 5 1.41614 16.6884 6.22707
438 6 1.41614 16.6884 9.57178
439 4 -2.86838 19.3581 7.89943
440 5 -1.02422 18.9413 6.22707
441 6 -1.02422 18.9413 9.57178
466 4 2.66445 18.1065 7.89943
467 5 4.50861 17.6897 6.22707
468 6 4.50861 17.6897 9.57178
469 4 0.224082 20.3594 7.89943
470 5 2.06824 19.9426 6.22707
471 6 2.06824 19.9426 9.57178
499 4 3.31655 21.3607 7.89943
155 1 5.73518 11.3744 1.58593
156 2 7.48412 10.8404 -1.01385e-19
157 3 7.48412 10.8404 3.17185
159 2 5.35886 13.1306 -1.01385e-19
160 3 5.35886 13.1306 3.17185
185 1 8.85697 12.0615 1.58593
186 2 10.6059 11.5275 -1.01385e-19
187 3 10.6059 11.5275 3.17185
188 1 6.73171 14.3517 1.58593
189 2 8.48065 13.8177 -1.01385e-19
190 3 8.48065 13.8177 3.17185
192 2 6.35539 16.1079 -1.01385e-19
193 3 6.35539 16.1079 3.17185
215 1 11.9788 12.7486 1.58593
218 1 9.8535 15.0387 1.58593
219 2 11.6024 14.5047 -1.01385e-19
220 3 11.6024 14.5047 3.17185
221 1 7.72824 17.3289 1.58593
222 2 9.47718 16.7949 -1.01385e-19
223 3 9.47718 16.7949 3.17185
224 1 5.60298 19.6191 1.58593
225 2 7.35192 19.0851 -1.01385e-19
226 3 7.35192 19.0851 3.17185
227 2 5.22667 21.3753 -1.01385e-19
228 3 5.22667 21.3753 3.17185
247 1 12.9753 15.7258 1.58593
250 1 10.85 18.016 1.58593
251 2 12.599 17.482 -1.01385e-19
252 3 12.599 17.482 3.17185
253 1 8.72477 20.3062 1.58593
254 2 10.4737 19.7722 -1.01385e-19
255 3 10.4737 19.7722 3.17185
431 5 6.29688 12.1826 6.22707
432 6 6.29688 12.1826 9.57178
457 4 9.98556 11.3478 7.89943
458 5 11.8297 10.931 6.22707
459 6 11.8297 10.931 9.57178
460 4 7.54519 13.6007 7.89943
461 5 9.38935 13.1839 6.22707
462 6 9.38935 13.1839 9.57178
463 4 5.10482 15.8536 7.89943
464 5 6.94898 15.4368 6.22707
465 6 6.94898 15.4368 9.57178
487 4 13.078 12.3491 7.89943
490 4 10.6377 14.602 7.89943
491 5 12.4818 14.1852 6.22707
492 6 12.4818 14.1852 9.57178
493 4 8.19728 16.8549 7.89943
494 5 10.0414 16.4381 6.22707
495 6 10.0414 16.4381 9.57178
496 4 5.75691 19.1078 7.89943
497 5 7.60107 18.691 6.22707
498 6 7.60107 18.691 9.57178
500 5 5.1607 20.9439 6.22707
501 6 5.1607 20.9439 9.57178
523 4 11.2897 17.8562 7.89943
524 5 13.1339 17.4394 6.22707
525 6 13.1339 17.4394 9.57178
526 4 8.84938 20.1091 7.89943
527 5 10.6935 19.6923 6.22707
528 6 10.6935 19.6923 9.57178
216 2 13.7277 12.2145 -1.01385e-19
217 3 13.7277 12.2145 3.17185
241 1 17.2258 11.1454 1.58593
244 1 15.1005 13.4356 1.58593
245 2 16.8495 12.9016 -1.01385e-19
246 3 16.8495 12.9016 3.17185
248 2 14.7242 15.1918 -1.01385e-19
249 3 14.7242 15.1918 3.17185
269 1 20.3476 11.8325 1.58593
272 1 18.2223 14.1227 1.58593
273 2 19.9713 13.5886 -1.01385e-19
274 3 19.9713 13.5886 3.17185
275 1 16.0971 16.4129 1.58593
289 4 19.263 14.3517 7.89943
488 5 14.9222 11.9323 6.22707
489 6 14.9222 11.9323 9.57178
514 4 18.6109 11.0975 7.89943
517 4 16.1705 13.3504 7.89943
518 5 18.0146 12.9335 6.22707
519 6 18.0146 12.9335 9.57178
520 4 13.7301 15.6033 7.89943
521 5 15.5743 15.1865 6.22707
522 6 15.5743 15.1865 9.57178
270 2 22.0965 11.2985 -1.01385e-19
271 3 22.0965 11.2985 3.17185
540 4 21.7033 12.0988 7.89943
ITEM: TIMESTEP
200
ITEM: NUMBER OF ATOMS
540
ITEM: BOX BOUNDS xy xz yz pp pp ss
-2.7496150547204270e+01 3.7593658013431089e+01 -2.7496150547204270e+01
0.0000000000000000e+00 2.1527795248303640e+01 0.0000000000000000e+00
-1.0000000000000000e-02 9.5817839999999990e+00 0.0000000000000000e+00
ITEM: ATOMS id type x y z
14 1 -11.7203 10.2911 1.71964
285 5 -11.7142 9.54667 6.40805
286 6 -11.6885 9.52544 9.79183
9 2 -5.80311 5.10975 -0.120434
10 3 -5.6899 4.81143 2.84884
11 1 -9.67664 7.82545 1.69016
12 2 -7.89958 7.23059 0.0896043
13 3 -7.72214 7.19614 3.13618
15 2 -10.1401 9.59176 0.0885815
16 3 -9.94641 9.57741 3.35773
37 1 -4.42835 6.20985 1.34403
40 1 -6.46389 8.55297 1.62055
41 2 -4.65074 8.15747 0.00496901
42 3 -4.7306 7.75951 2.97108
44 2 -6.79918 10.2865 0.142957
45 3 -6.84256 10.2297 3.21521
68 1 -3.47559 9.34367 1.67293
283 5 -9.48342 7.25042 6.26691
284 6 -9.26406 7.25355 9.5705
307 4 -5.75166 6.37695 7.72344
308 5 -3.77904 5.82347 6.00565
309 6 -3.84751 6.02693 9.41523
310 4 -8.14822 8.75448 7.94697
311 5 -6.46813 8.12336 6.11072
312 6 -6.11574 8.18708 9.55513
314 5 -8.7833 10.7621 6.22363
315 6 -8.5588 10.634 9.49744
340 4 -5.0803 9.72527 7.76884
31 1 -0.100749 1.55922 0.907602
32 2 1.54073 1.06089 -0.758739
33 3 1.57407 1.12093 2.41532
34 1 -2.46172 3.90388 0.980258
35 2 -0.526003 3.36927 -0.557634
36 3 -0.635156 3.13141 2.49348
38 2 -2.60363 5.79501 -0.314507
39 3 -2.67349 5.54577 2.85407
58 1 5.08302 0.157536 0.870821
59 1 2.85267 2.39423 0.869404
60 2 4.7017 1.93165 -0.68457
61 3 4.52887 1.78218 2.52575
62 1 0.828897 4.62999 1.07972
63 2 2.45904 4.31928 -0.505041
64 3 2.45909 3.94801 2.56221
65 1 -1.30945 6.8605 1.34224
66 2 0.457522 6.4197 -0.383416
67 3 0.478265 6.15984 2.77286
69 2 -1.84085 8.7592 -0.0237009
70 3 -1.51893 8.44555 2.94746
92 1 3.89709 5.342 1.17963
95 1 1.71572 7.57035 1.2979
96 2 3.50547 7.15882 -0.256519
97 3 3.62814 7.15325 2.74107
98 1 -0.384787 9.85946 1.41878
99 2 1.2722 9.50232 -0.201696
100 3 1.44705 9.47495 2.83888
125 1 4.88373 8.33518 1.22559
128 1 2.94382 10.5073 1.20281
129 2 4.61191 10.0196 -0.347549
130 3 4.76363 10.1764 2.71949
301 4 -0.849949 1.91431 7.74059
302 5 1.05716 1.29038 6.17604
303 6 1.03627 1.33566 9.43816
304 4 -3.16896 4.16442 7.72136
305 5 -1.33986 3.70722 6.12043
306 6 -1.41816 3.64753 9.52227
328 4 4.69049 0.683816 7.91132
331 4 2.2456 2.8581 7.79229
332 5 4.05999 2.443 6.20919
333 6 4.04909 2.63826 9.5619
334 4 -0.240099 5.06978 7.80255
335 5 1.59489 4.6153 6.25749
336 6 1.7072 4.76371 9.41456
337 4 -2.60167 7.49469 7.7142
338 5 -0.697987 6.90985 6.0523
339 6 -0.843444 6.87507 9.38391
341 5 -3.21912 9.37512 6.07833
342 6 -3.11393 9.31164 9.43355
364 4 2.86382 6.13975 7.8351
365 5 4.69879 5.6068 6.14659
366 6 4.69577 5.7707 9.55397
367 4 0.499532 8.52898 7.70088
368 5 2.35806 8.14838 6.21913
369 6 2.12694 7.99477 9.4741
370 4 -1.95958 10.7583 7.74309
371 5 0.0557871 10.3587 6.10332
372 6 -0.23688 10.2074 9.37125
397 4 3.64679 9.35623 7.93195
86 1 8.16156 0.831318 1.02704
87 2 10.1549 0.310714 -0.236779
88 3 9.90535 0.129739 2.81169
89 1 5.90406 3.10129 1.04827
90 2 7.88104 2.67639 -0.421836
91 3 7.70592 2.48132 2.64374
93 2 5.7073 5.00113 -0.427266
94 3 5.54595 4.76607 2.78788
116 1 11.2821 1.53673 1.44005
117 2 13.117 0.940211 0.108454
118 3 13.1254 1.00095 3.16246
119 1 9.03483 3.91902 1.21851
120 2 11.066 3.29129 -0.264011
121 3 10.6985 3.31577 2.92596
122 1 6.94483 6.09845 1.22246
123 2 8.66946 5.58015 -0.403614
124 3 8.6463 5.61107 2.79311
126 2 6.59347 7.83124 -0.290525
127 3 6.61344 7.77376 2.7116
146 1 12.1979 4.58247 1.45254
149 1 10.1223 6.64521 1.32051
150 2 11.895 6.3754 -0.0266501
151 3 11.5592 6.20113 2.99269
152 1 8.08546 8.9402 1.18828
153 2 9.93779 8.45197 -0.215217
154 3 9.64158 8.48419 3.00679
179 1 13.2121 7.55789 1.6295
182 1 11.2516 9.70949 1.50983
183 2 13.1276 9.1526 -0.0336965
184 3 12.8475 9.29773 3.04958
329 5 6.47121 0.248603 6.23672
330 6 6.49773 0.267425 9.50599
358 4 7.69279 1.63302 7.80886
359 5 9.69675 1.19523 6.24671
360 6 9.59185 1.16774 9.52339
361 4 5.32911 3.88336 7.83026
362 5 7.31405 3.44503 6.30774
363 6 7.01488 3.53314 9.55681
388 4 10.9033 2.58044 7.94821
389 5 12.9667 2.13383 6.43879
390 6 12.7368 2.22379 9.76415
391 4 8.53291 4.80627 7.86792
392 5 10.498 4.45619 6.3154
393 6 10.334 4.54615 9.58037
394 4 6.01815 7.07622 7.77931
395 5 7.88436 6.45425 6.16364
396 6 7.97126 6.56129 9.4105
398 5 5.5567 8.93172 6.18236
399 6 5.54884 8.86282 9.54505
421 4 11.6774 5.75286 7.93406
424 4 9.2271 8.11354 7.8617
425 5 11.1702 7.74217 6.23887
426 6 10.9763 7.73943 9.53137
427 4 6.83458 10.3532 7.90616
428 5 8.60807 9.99974 6.23436
429 6 8.59882 9.71338 9.67548
454 4 12.3294 8.99108 7.91344
143 1 14.3343 2.21936 1.69451
144 2 16.3344 1.78905 0.16281
145 3 16.2907 1.54086 3.19742
147 2 14.1916 4.01995 0.138542
148 3 13.7538 3.95271 3.20659
170 1 19.8076 0.574771 1.63241
171 2 21.5316 0.152668 0.11162
172 3 21.5308 0.0491118 3.22394
173 1 17.5548 2.98248 1.81656
174 2 19.4055 2.41439 0.180227
175 3 19.4037 2.34231 3.29992
176 1 15.3484 5.22099 1.72703
177 2 17.2165 4.66035 0.226219
178 3 17.0602 4.66232 3.31025
180 2 15.0892 6.81823 0.0931184
181 3 14.9898 7.13829 3.29526
203 1 20.7118 3.52574 1.80121
206 1 18.421 5.86389 1.84296
207 2 20.2433 5.36751 0.248538
208 3 20.1419 5.20448 3.39007
209 1 16.4317 8.29095 1.74287
210 2 18.1328 7.60548 0.342123
211 3 17.9626 7.63648 3.47146
212 1 14.1867 10.6139 1.53645
213 2 15.9732 9.76645 0.0435214
214 3 15.9121 10.0855 3.12502
238 1 19.3541 8.82945 1.92781
239 2 21.3273 8.3043 0.431759
240 3 21.2664 8.33737 3.39499
242 2 19.2797 10.6748 0.185443
243 3 19.0247 10.6673 3.30523
387 4 13.4081 0.357644 8.14485
415 4 16.622 1.45177 8.31998
416 5 18.4756 0.921725 6.74594
417 6 18.3607 1.10003 10.1058
418 4 14.1312 3.64542 8.17158
419 5 15.9644 3.08599 6.65265
420 6 15.8388 3.2767 9.88285
422 5 13.4303 5.34117 6.33287
423 6 13.6014 5.53273 9.65233
445 4 19.5584 2.36888 8.34158
448 4 17.1388 4.63918 8.16182
449 5 18.9611 4.18309 6.61779
450 6 18.9988 4.38393 9.95086
451 4 14.8144 6.86526 7.9816
452 5 16.6211 6.40961 6.31221
453 6 16.5761 6.54646 9.81492
455 5 14.2542 8.58654 6.30348
456 6 14.1894 8.61033 9.54224
478 4 20.1365 5.69174 8.22877
481 4 17.8673 7.85376 8.05611
482 5 19.7329 7.51913 6.43894
483 6 19.6103 7.56866 9.75368
484 4 15.3882 10.0463 7.98639
485 5 17.3619 9.64069 6.40672
486 6 17.09 9.70691 9.60886
511 4 20.9732 8.96418 8.12067
515 5 20.4909 10.7251 6.39456
516 6 20.2283 10.7254 9.74855
200 1 22.9244 1.2558 1.56815
201 2 24.5982 0.743961 -0.178657
202 3 24.7075 0.749565 2.93447
204 2 22.286 3.03279 0.175628
205 3 22.5518 2.86129 3.26121
229 1 25.918 2.00913 1.35762
230 2 27.6837 1.25408 -0.175115
231 3 27.6915 1.09502 2.86366
232 1 23.8235 4.29524 1.63256
233 2 25.5897 3.98853 0.0143082
234 3 25.5675 3.56861 3.16417
235 1 21.4902 6.54719 1.82118
236 2 23.3667 6.19164 0.189125
237 3 23.337 5.97789 3.23247
257 1 29.048 2.50385 1.38769
260 1 26.9813 4.77787 1.63924
261 2 28.6378 4.33624 -0.0991997
262 3 28.699 4.22714 3.20359
263 1 24.7741 7.18263 1.72837
264 2 26.4459 6.8979 0.158755
265 3 26.6509 6.60805 3.22657
266 1 22.6446 9.52596 1.92954
267 2 24.2979 9.00843 0.390511
268 3 24.542 9.01471 3.33847
444 4 22.1611 0.139083 8.50201
446 5 21.4691 2.02518 6.90554
447 6 21.432 1.92777 10.016
472 4 25.1992 1.22944 8.43579
473 5 26.9614 0.735336 6.65472
474 6 27.0452 0.866243 10.0136
475 4 22.7153 3.56526 8.47472
476 5 24.4139 2.84899 6.64277
477 6 24.5309 2.99214 9.99821
479 5 22.0746 5.17886 6.69375
480 6 22.0039 5.57376 9.96467
502 4 28.2846 2.25185 8.1952
505 4 25.7446 4.51777 8.20551
506 5 27.532 4.00384 6.47496
507 6 27.7352 4.22034 9.79494
508 4 23.2023 6.76313 8.19695
509 5 25.002 6.16344 6.51981
510 6 25.2576 6.47134 9.77789
512 5 22.8586 8.5434 6.46954
513 6 22.7347 8.59303 9.82003
535 4 28.8173 5.48475 7.95059
538 4 26.4218 7.65531 8.06591
539 4 23.9597 9.96724 8.10039
256 1 31.3285 0.260148 1.04389
258 2 30.6863 1.99385 -0.412427
259 3 30.8611 1.97542 2.75595
276 1 34.3935 0.794231 1.01952
277 2 36.151 0.519016 -0.664968
278 3 36.2378 0.379133 2.47261
279 1 32.1807 3.07575 1.0567
280 2 33.9094 2.58829 -0.666462
281 3 33.864 2.61243 2.53338
282 1 30.0318 5.37005 1.52717
503 5 30.0461 1.62281 6.34171
504 6 30.2897 1.82384 9.78374
529 4 33.701 0.788817 7.77168
530 5 35.4397 0.23514 6.03289
531 6 35.6307 0.469973 9.35202
532 4 31.2847 3.13262 7.95984
533 5 33.0273 2.61092 6.23094
534 6 33.1938 2.76961 9.44245
536 5 30.6213 4.82284 6.21182
537 6 30.7223 4.93152 9.46933
1 2 -19.3931 15.8707 -0.183795
2 3 -19.4648 16.0218 2.9274
3 1 -23.3378 18.6222 1.01419
4 2 -21.5528 18.0619 -0.568028
5 3 -21.6331 18.4462 2.62729
6 1 -25.5538 20.9028 0.950204
7 2 -23.6293 20.3679 -0.643049
8 3 -23.7481 20.3892 2.58507
26 1 -20.2506 19.4322 1.0615
29 2 -20.6346 20.9955 -0.695584
30 3 -20.761 21.2307 2.54486
292 4 -20.9265 16.6084 8.00786
295 4 -23.3305 18.8818 7.92119
296 5 -21.3164 18.4736 6.3908
297 6 -21.5197 18.4501 9.72117
298 4 -25.9271 21.0199 7.85216
299 5 -24.0396 20.7232 6.29814
300 6 -24.0056 20.7543 9.59482
325 4 -20.2722 19.9109 7.91373
17 1 -14.0011 12.4347 1.74649
18 2 -12.1928 11.9294 0.0690266
19 3 -12.3119 11.9995 3.36345
20 1 -16.0008 14.7157 1.58909
21 2 -14.2432 14.2839 0.0851555
22 3 -14.4289 14.3182 3.23874
23 1 -18.0908 17.1901 1.38535
24 2 -16.3286 16.4702 -0.0567293
25 3 -16.4338 16.5738 3.06885
27 2 -18.3104 18.7533 -0.361785
28 3 -18.6464 18.9699 2.81061
49 1 -12.9179 15.5973 1.59275
50 2 -11.2351 14.7952 0.024148
51 3 -11.2855 15.0127 3.19942
52 1 -15.0248 17.8202 1.46268
53 2 -13.2212 17.2513 0.135231
54 3 -13.2691 17.251 3.10637
55 1 -17.128 19.9471 1.25297
56 2 -15.2776 19.4957 -0.0426202
57 3 -15.5585 19.7115 3.00148
80 1 -11.8806 18.4779 1.70998
83 1 -13.9477 20.785 1.58243
84 2 -12.1406 20.1975 0.0614885
85 3 -12.314 20.4312 3.23799
287 5 -14.0696 11.9043 6.57818
288 6 -14.1423 11.7016 9.82389
290 5 -16.5139 13.9258 6.60648
291 6 -16.6182 13.9137 9.85205
293 5 -18.9009 16.2672 6.36255
294 6 -18.9999 16.1087 9.73227
316 4 -12.9012 13.1825 8.26276
319 4 -15.36 15.4517 8.22023
320 5 -13.6238 15.0608 6.50478
321 6 -13.435 15.018 9.83291
322 4 -17.7556 17.6072 8.15521
323 5 -15.8775 17.1775 6.48413
324 6 -15.8796 17.3593 9.9194
326 5 -18.2333 19.4046 6.51144
327 6 -18.5668 19.4793 9.69265
349 4 -12.347 16.3877 8.04523
352 4 -14.7064 18.7463 8.09799
353 5 -12.8285 18.3247 6.54334
354 6 -12.8432 18.2885 9.81854
355 4 -17.1561 20.9277 8.01457
356 5 -15.2209 20.419 6.43874
357 6 -15.4631 20.513 9.84298
382 4 -11.5931 19.7296 8.30129
385 5 -12.1074 21.5686 6.65211
386 6 -12.3199 21.5689 9.86989
43 1 -8.72067 10.7951 1.73211
46 1 -10.8222 13.1834 1.72466
47 2 -9.15913 12.4959 0.197717
48 3 -8.9272 12.626 3.20928
71 1 -5.4774 11.5063 1.69363
72 2 -3.81433 11.0488 -0.0227615
73 3 -3.95279 11.0518 3.27293
74 1 -7.72572 13.8637 1.59546
75 2 -6.07738 13.1182 0.124495
76 3 -5.97308 13.4603 3.24314
77 1 -9.84834 16.1016 1.6059
78 2 -8.10137 15.5042 0.0143571
79 3 -8.02445 15.6211 3.23541
81 2 -10.3355 17.6846 0.0842861
82 3 -10.0704 17.8168 3.18664
104 1 -4.65179 14.636 1.52965
107 1 -6.67396 16.7676 1.50634
108 2 -4.72871 16.5121 -0.0281264
109 3 -4.892 16.3408 3.163
110 1 -8.7442 19.0563 1.47984
111 2 -6.91744 18.4802 -0.0903466
112 3 -7.04828 18.614 3.09332
113 1 -10.8198 21.4877 1.6735
114 2 -9.07787 20.8821 0.0509353
115 3 -9.15104 20.6916 3.15715
137 1 -3.45424 17.5511 1.48702
140 1 -5.63334 19.7195 1.56631
141 2 -3.98138 19.267 -0.00108959
142 3 -3.74734 19.3111 3.05037
313 4 -10.5755 11.0455 8.03868
317 5 -11.238 12.9219 6.40439
318 6 -10.9632 12.7653 9.7098
343 4 -7.45843 11.9956 7.84817
344 5 -5.64002 11.6287 6.13446
345 6 -5.51387 11.4471 9.3664
346 4 -9.86301 14.232 8.05037
347 5 -8.08578 13.8902 6.27489
348 6 -7.9673 13.7191 9.6448
350 5 -10.4443 16.2566 6.3663
351 6 -10.4745 15.943 9.69699
373 4 -4.36907 13.0365 7.84657
376 4 -6.7619 15.2294 8.00284
377 5 -4.9001 15.0445 6.30485
378 6 -4.92695 14.6112 9.50073
379 4 -9.11307 17.498 8.16245
380 5 -7.32398 17.2798 6.57599
381 6 -7.43913 16.8998 9.76812
383 5 -9.58114 19.4446 6.64124
384 6 -9.67687 19.1411 9.95339
406 4 -3.60932 16.1631 8.1261
409 4 -6.09538 18.4919 8.36033
410 5 -4.22948 18.1223 6.69369
411 6 -4.22955 17.8573 9.93989
412 4 -8.40598 20.643 8.43823
413 5 -6.53745 20.2898 6.80725
414 6 -6.47305 20.2095 10.0809
442 5 -3.57708 21.1571 6.91146
443 6 -3.54193 21.2502 10.1563
101 1 -2.50264 12.232 1.54656
102 2 -0.639682 11.7031 -0.00985805
103 3 -0.669163 11.6663 3.03982
105 2 -2.91004 13.9818 0.0158233
106 3 -2.83267 14.0773 3.07184
131 1 0.729381 12.7279 1.4497
132 2 2.44989 12.2872 -0.253391
133 3 2.6859 12.2177 2.71436
134 1 -1.41478 15.1805 1.51238
135 2 0.174808 14.6419 -0.168608
136 3 0.497406 14.5711 3.00928
138 2 -1.81621 16.8843 -0.0745081
139 3 -1.55295 17.1318 2.89437
158 1 3.91092 13.5543 1.21292
161 1 1.64239 15.8015 1.35951
162 2 3.3623 15.2324 -0.362975
163 3 3.58801 15.2074 2.77223
164 1 -0.260799 18.2065 1.26759
165 2 1.32166 17.4698 -0.394541
166 3 1.41432 17.6499 2.82067
167 1 -2.30182 20.4213 1.36485