
 159 atoms
 6 atom types

 0.000000 85.32567 xlo xhi
 0.000000 2.84229537522053 ylo yhi
 0.000000 100.00000 zlo zhi
 -1.641 0.000000  0.000000 xy xz yz

 Masses 

1    95.950000
2    32.060000
3    32.060000
4   183.840000
5    78.971000
6    78.971000

 Atoms

   1 1     0.000000     0.000000     1.585926
   2 2     0.000000     1.824913     0.000000
   3 3     0.000000     1.824913     3.171852
   4 1     3.160210     0.000000     1.585926
   5 2     3.160210     1.824913     0.000000
   6 3     3.160210     1.824913     3.171852
   7 1     6.320420     0.000000     1.585926
   8 2     6.320420     1.824913     0.000000
   9 3     6.320420     1.824913     3.171852
  10 1     9.480630     0.000000     1.585926
  11 2     9.480630     1.824913     0.000000
  12 3     9.480630     1.824913     3.171852
  13 1    12.640840     0.000000     1.585926
  14 2    12.640840     1.824913     0.000000
  15 3    12.640840     1.824913     3.171852
  16 1    15.801050     0.000000     1.585926
  17 2    15.801050     1.824913     0.000000
  18 3    15.801050     1.824913     3.171852
  19 1    18.961260     0.000000     1.585926
  20 2    18.961260     1.824913     0.000000
  21 3    18.961260     1.824913     3.171852
  22 1    22.121470     0.000000     1.585926
  23 2    22.121470     1.824913     0.000000
  24 3    22.121470     1.824913     3.171852
  25 1    25.281680     0.000000     1.585926
  26 2    25.281680     1.824913     0.000000
  27 3    25.281680     1.824913     3.171852
  28 1    28.441890     0.000000     1.585926
  29 2    28.441890     1.824913     0.000000
  30 3    28.441890     1.824913     3.171852
  31 1    31.602100     0.000000     1.585926
  32 2    31.602100     1.824913     0.000000
  33 3    31.602100     1.824913     3.171852
  34 1    34.762310     0.000000     1.585926
  35 2    34.762310     1.824913     0.000000
  36 3    34.762310     1.824913     3.171852
  37 1    37.922520     0.000000     1.585926
  38 2    37.922520     1.824913     0.000000
  39 3    37.922520     1.824913     3.171852
  40 1    41.082730     0.000000     1.585926
  41 2    41.082730     1.824913     0.000000
  42 3    41.082730     1.824913     3.171852
  43 1    44.242940     0.000000     1.585926
  44 2    44.242940     1.824913     0.000000
  45 3    44.242940     1.824913     3.171852
  46 1    47.403150     0.000000     1.585926
  47 2    47.403150     1.824913     0.000000
  48 3    47.403150     1.824913     3.171852
  49 1    50.563360     0.000000     1.585926
  50 2    50.563360     1.824913     0.000000
  51 3    50.563360     1.824913     3.171852
  52 1    53.723570     0.000000     1.585926
  53 2    53.723570     1.824913     0.000000
  54 3    53.723570     1.824913     3.171852
  55 1    56.883780     0.000000     1.585926
  56 2    56.883780     1.824913     0.000000
  57 3    56.883780     1.824913     3.171852
  58 1    60.043990     0.000000     1.585926
  59 2    60.043990     1.824913     0.000000
  60 3    60.043990     1.824913     3.171852
  61 1    63.204200     0.000000     1.585926
  62 2    63.204200     1.824913     0.000000
  63 3    63.204200     1.824913     3.171852
  64 1    66.364410     0.000000     1.585926
  65 2    66.364410     1.824913     0.000000
  66 3    66.364410     1.824913     3.171852
  67 1    69.524620     0.000000     1.585926
  68 2    69.524620     1.824913     0.000000
  69 3    69.524620     1.824913     3.171852
  70 1    72.684830     0.000000     1.585926
  71 2    72.684830     1.824913     0.000000
  72 3    72.684830     1.824913     3.171852
  73 1    75.845040     0.000000     1.585926
  74 2    75.845040     1.824913     0.000000
  75 3    75.845040     1.824913     3.171852
  76 1    79.005250     0.000000     1.585926
  77 2    79.005250     1.824913     0.000000
  78 3    79.005250     1.824913     3.171852
  79 1    82.165460     0.000000     1.585926
  80 2    82.165460     1.824913     0.000000
  81 3    82.165460     1.824913     3.171852
  82 4     0.000000     0.000000     7.757778
  83 5    -0.000081     1.895243     6.087234
  84 6    -0.000081     1.895243     9.428322
  85 4     3.281757     0.000000     7.757778
  86 5     3.281675     1.895243     6.087234
  87 6     3.281675     1.895243     9.428322
  88 4     6.563513     0.000000     7.757778
  89 5     6.563432     1.895243     6.087234
  90 6     6.563432     1.895243     9.428322
  91 4     9.845270     0.000000     7.757778
  92 5     9.845188     1.895243     6.087234
  93 6     9.845188     1.895243     9.428322
  94 4    13.127026     0.000000     7.757778
  95 5    13.126945     1.895243     6.087234
  96 6    13.126945     1.895243     9.428322
  97 4    16.408783     0.000000     7.757778
  98 5    16.408702     1.895243     6.087234
  99 6    16.408702     1.895243     9.428322
 100 4    19.690539     0.000000     7.757778
 101 5    19.690458     1.895243     6.087234
 102 6    19.690458     1.895243     9.428322
 103 4    22.972296     0.000000     7.757778
 104 5    22.972215     1.895243     6.087234
 105 6    22.972215     1.895243     9.428322
 106 4    26.254052     0.000000     7.757778
 107 5    26.253971     1.895243     6.087234
 108 6    26.253971     1.895243     9.428322
 109 4    29.535809     0.000000     7.757778
 110 5    29.535728     1.895243     6.087234
 111 6    29.535728     1.895243     9.428322
 112 4    32.817565     0.000000     7.757778
 113 5    32.817484     1.895243     6.087234
 114 6    32.817484     1.895243     9.428322
 115 4    36.099322     0.000000     7.757778
 116 5    36.099241     1.895243     6.087234
 117 6    36.099241     1.895243     9.428322
 118 4    39.381078     0.000000     7.757778
 119 5    39.380997     1.895243     6.087234
 120 6    39.380997     1.895243     9.428322
 121 4    42.662835     0.000000     7.757778
 122 5    42.662754     1.895243     6.087234
 123 6    42.662754     1.895243     9.428322
 124 4    45.944592     0.000000     7.757778
 125 5    45.944510     1.895243     6.087234
 126 6    45.944510     1.895243     9.428322
 127 4    49.226348     0.000000     7.757778
 128 5    49.226267     1.895243     6.087234
 129 6    49.226267     1.895243     9.428322
 130 4    52.508105     0.000000     7.757778
 131 5    52.508023     1.895243     6.087234
 132 6    52.508023     1.895243     9.428322
 133 4    55.789861     0.000000     7.757778
 134 5    55.789780     1.895243     6.087234
 135 6    55.789780     1.895243     9.428322
 136 4    59.071618     0.000000     7.757778
 137 5    59.071537     1.895243     6.087234
 138 6    59.071537     1.895243     9.428322
 139 4    62.353374     0.000000     7.757778
 140 5    62.353293     1.895243     6.087234
 141 6    62.353293     1.895243     9.428322
 142 4    65.635131     0.000000     7.757778
 143 5    65.635050     1.895243     6.087234
 144 6    65.635050     1.895243     9.428322
 145 4    68.916887     0.000000     7.757778
 146 5    68.916806     1.895243     6.087234
 147 6    68.916806     1.895243     9.428322
 148 4    72.198644     0.000000     7.757778
 149 5    72.198563     1.895243     6.087234
 150 6    72.198563     1.895243     9.428322
 151 4    75.480400     0.000000     7.757778
 152 5    75.480319     1.895243     6.087234
 153 6    75.480319     1.895243     9.428322
 154 4    78.762157     0.000000     7.757778
 155 5    78.762076     1.895243     6.087234
 156 6    78.762076     1.895243     9.428322
 157 4    82.043913     0.000000     7.757778
 158 5    82.043832     1.895243     6.087234
 159 6    82.043832     1.895243     9.428322
