CRYSTAL
PRIMVEC
 36.61402514490110 -8.52621167455757 0.00000000000000
 -21.89715637822871 27.20291906606355 0.00000000000000
 0.00000000000000 0.00000000000000 19.57178440000000
PRIMCOORD
 540 1
 16   -15.63174301388807    19.94380478390247    -1.58592600000000
 16   -15.63174301388807    19.94380478390247     1.58592600000000
 42   -18.76445446294952    23.57309261637925     0.00000000000000
 16   -17.18220592338258    22.65632358508885    -1.58592600000000
 16   -17.18220592338258    22.65632358508885     1.58592600000000
 42   -20.31491737244404    26.28561141756563     0.00000000000000
 16   -18.73266883287711    25.36884238627524    -1.58592600000000
 16   -18.73266883287711    25.36884238627524     1.58592600000000
 16    -4.68316482477371     6.34234525087069    -1.58592600000000
 16    -4.68316482477371     6.34234525087069     1.58592600000000
 42    -7.81587627383517     9.97163308334747     0.00000000000000
 16    -6.23362773426823     9.05486405205708    -1.58592600000000
 16    -6.23362773426823     9.05486405205708     1.58592600000000
 42    -9.36633918332969    12.68415188453386     0.00000000000000
 16    -7.78409064376275    11.76738285324346    -1.58592600000000
 16    -7.78409064376275    11.76738285324346     1.58592600000000
 42   -10.91680209282421    15.39667068572025     0.00000000000000
 16    -9.33455355325727    14.47990165442985    -1.58592600000000
 16    -9.33455355325727    14.47990165442985     1.58592600000000
 42   -12.46726500231873    18.10918948690663     0.00000000000000
 16   -10.88501646275179    17.19242045561624    -1.58592600000000
 16   -10.88501646275179    17.19242045561624     1.58592600000000
 42   -14.01772791181325    20.82170828809302     0.00000000000000
 16   -12.43547937224631    19.90493925680263    -1.58592600000000
 16   -12.43547937224631    19.90493925680263     1.58592600000000
 42   -15.56819082130777    23.53422708927940     0.00000000000000
 16   -13.98594228174083    22.61745805798901    -1.58592600000000
 16   -13.98594228174083    22.61745805798901     1.58592600000000
 16   -15.53640519123535    25.32997685917540    -1.58592600000000
 16   -15.53640519123535    25.32997685917540     1.58592600000000
 42     0.03177609629015     1.79521115268847     0.00000000000000
 16     1.61402463585708     0.87844212139808    -1.58592600000000
 16     1.61402463585708     0.87844212139808     1.58592600000000
 42    -1.51868681320437     4.50772995387486     0.00000000000000
 16     0.06356172636256     3.59096092258447    -1.58592600000000
 16     0.06356172636256     3.59096092258447     1.58592600000000
 42    -3.06914972269889     7.22024875506124     0.00000000000000
 16    -1.48690118313196     6.30347972377085    -1.58592600000000
 16    -1.48690118313196     6.30347972377085     1.58592600000000
 42    -4.61961263219341     9.93276755624763     0.00000000000000
 16    -3.03736409262648     9.01599852495724    -1.58592600000000
 16    -3.03736409262648     9.01599852495724     1.58592600000000
 42    -6.17007554168793    12.64528635743402     0.00000000000000
 16    -4.58782700212100    11.72851732614362    -1.58592600000000
 16    -4.58782700212100    11.72851732614362     1.58592600000000
 42    -7.72053845118245    15.35780515862040     0.00000000000000
 16    -6.13828991161552    14.44103612733001    -1.58592600000000
 16    -6.13828991161552    14.44103612733001     1.58592600000000
 42    -9.27100136067697    18.07032395980679     0.00000000000000
 16    -7.68875282111004    17.15355492851640    -1.58592600000000
 16    -7.68875282111004    17.15355492851640     1.58592600000000
 42   -10.82146427017149    20.78284276099318     0.00000000000000
 16    -9.23921573060456    19.86607372970279    -1.58592600000000
 16    -9.23921573060456    19.86607372970279     1.58592600000000
 42   -12.37192717966601    23.49536156217956     0.00000000000000
 16   -10.78967864009907    22.57859253088917    -1.58592600000000
 16   -10.78967864009907    22.57859253088917     1.58592600000000
 42     4.77850264742642    -0.95617317559776     0.00000000000000
 42     3.22803973793190     1.75634562558863     0.00000000000000
 16     4.81028827749884     0.83957659429824    -1.58592600000000
 16     4.81028827749884     0.83957659429824     1.58592600000000
 42     1.67757682843738     4.46886442677502     0.00000000000000
 16     3.25982536800432     3.55209539548462    -1.58592600000000
 16     3.25982536800432     3.55209539548462     1.58592600000000
 42     0.12711391894286     7.18138322796140     0.00000000000000
 16     1.70936245850980     6.26461419667101    -1.58592600000000
 16     1.70936245850980     6.26461419667101     1.58592600000000
 42    -1.42334899055166     9.89390202914779     0.00000000000000
 16     0.15889954901528     8.97713299785740    -1.58592600000000
 16     0.15889954901528     8.97713299785740     1.58592600000000
 42    -2.97381190004618    12.60642083033418     0.00000000000000
 16    -1.39156336047924    11.68965179904378    -1.58592600000000
 16    -1.39156336047924    11.68965179904378     1.58592600000000
 42    -4.52427480954070    15.31893963152056     0.00000000000000
 16    -2.94202626997376    14.40217060023017    -1.58592600000000
 16    -2.94202626997376    14.40217060023017     1.58592600000000
 42    -6.07473771903522    18.03145843270695     0.00000000000000
 16    -4.49248917946828    17.11468940141656    -1.58592600000000
 16    -4.49248917946828    17.11468940141656     1.58592600000000
 42    -7.62520062852974    20.74397723389334     0.00000000000000
 16    -6.04295208896280    19.82720820260295    -1.58592600000000
 16    -6.04295208896280    19.82720820260295     1.58592600000000
 42    -9.17566353802426    23.45649603507972     0.00000000000000
 16    -7.59341499845732    22.53972700378933    -1.58592600000000
 16    -7.59341499845732    22.53972700378933     1.58592600000000
 42     7.97476628906818    -0.99503870269760     0.00000000000000
 16     9.55701482863511    -1.91180773398799    -1.58592600000000
 16     9.55701482863511    -1.91180773398799     1.58592600000000
 42     6.42430337957366     1.71748009848879     0.00000000000000
 16     8.00655191914059     0.80071106719840    -1.58592600000000
 16     8.00655191914059     0.80071106719840     1.58592600000000
 42     4.87384047007914     4.42999889967517     0.00000000000000
 16     6.45608900964607     3.51322986838478    -1.58592600000000
 16     6.45608900964607     3.51322986838478     1.58592600000000
 42     3.32337756058462     7.14251770086156     0.00000000000000
 16     4.90562610015155     6.22574866957117    -1.58592600000000
 16     4.90562610015155     6.22574866957117     1.58592600000000
 42     1.77291465109010     9.85503650204795     0.00000000000000
 16     3.35516319065703     8.93826747075756    -1.58592600000000
 16     3.35516319065703     8.93826747075756     1.58592600000000
 42     0.22245174159558    12.56755530323434     0.00000000000000
 16     1.80470028116251    11.65078627194394    -1.58592600000000
 16     1.80470028116251    11.65078627194394     1.58592600000000
 42    -1.32801116789894    15.28007410442072     0.00000000000000
 16     0.25423737166799    14.36330507313033    -1.58592600000000
 16     0.25423737166799    14.36330507313033     1.58592600000000
 42    -2.87847407739346    17.99259290560711     0.00000000000000
 16    -1.29622553782653    17.07582387431672    -1.58592600000000
 16    -1.29622553782653    17.07582387431672     1.58592600000000
 42    -4.42893698688798    20.70511170679350     0.00000000000000
 16    -2.84668844732105    19.78834267550311    -1.58592600000000
 16    -2.84668844732105    19.78834267550311     1.58592600000000
 42    -5.97939989638250    23.41763050797988     0.00000000000000
 16    -4.39715135681557    22.50086147668949    -1.58592600000000
 16    -4.39715135681557    22.50086147668949     1.58592600000000
 42    11.17102993070993    -1.03390422979744     0.00000000000000
 16    12.75327847027687    -1.95067326108783    -1.58592600000000
 16    12.75327847027687    -1.95067326108783     1.58592600000000
 42     9.62056702121541     1.67861457138895     0.00000000000000
 16    11.20281556078235     0.76184554009855    -1.58592600000000
 16    11.20281556078235     0.76184554009855     1.58592600000000
 42     8.07010411172089     4.39113337257533     0.00000000000000
 16     9.65235265128783     3.47436434128494    -1.58592600000000
 16     9.65235265128783     3.47436434128494     1.58592600000000
 42     6.51964120222637     7.10365217376172     0.00000000000000
 16     8.10188974179331     6.18688314247133    -1.58592600000000
 16     8.10188974179331     6.18688314247133     1.58592600000000
 42     4.96917829273185     9.81617097494811     0.00000000000000
 16     6.55142683229879     8.89940194365771    -1.58592600000000
 16     6.55142683229879     8.89940194365771     1.58592600000000
 42     3.41871538323733    12.52868977613450     0.00000000000000
 16     5.00096392280427    11.61192074484410    -1.58592600000000
 16     5.00096392280427    11.61192074484410     1.58592600000000
 42     1.86825247374281    15.24120857732088     0.00000000000000
 16     3.45050101330975    14.32443954603049    -1.58592600000000
 16     3.45050101330975    14.32443954603049     1.58592600000000
 42     0.31778956424829    17.95372737850727     0.00000000000000
 16     1.90003810381523    17.03695834721687    -1.58592600000000
 16     1.90003810381523    17.03695834721687     1.58592600000000
 42    -1.23267334524623    20.66624617969366     0.00000000000000
 16     0.34957519432071    19.74947714840327    -1.58592600000000
 16     0.34957519432071    19.74947714840327     1.58592600000000
 42    14.36729357235169    -1.07276975689728     0.00000000000000
 16    15.94954211191862    -1.98953878818767    -1.58592600000000
 16    15.94954211191862    -1.98953878818767     1.58592600000000
 42    12.81683066285717     1.63974904428911     0.00000000000000
 16    14.39907920242411     0.72298001299871    -1.58592600000000
 16    14.39907920242411     0.72298001299871     1.58592600000000
 42    11.26636775336265     4.35226784547549     0.00000000000000
 16    12.84861629292958     3.43549881418510    -1.58592600000000
 16    12.84861629292958     3.43549881418510     1.58592600000000
 42     9.71590484386813     7.06478664666188     0.00000000000000
 16    11.29815338343506     6.14801761537149    -1.58592600000000
 16    11.29815338343506     6.14801761537149     1.58592600000000
 42     8.16544193437361     9.77730544784827     0.00000000000000
 16     9.74769047394054     8.86053641655787    -1.58592600000000
 16     9.74769047394054     8.86053641655787     1.58592600000000
 42     6.61497902487909    12.48982424903465     0.00000000000000
 16     8.19722756444603    11.57305521774426    -1.58592600000000
 16     8.19722756444603    11.57305521774426     1.58592600000000
 42     5.06451611538457    15.20234305022104     0.00000000000000
 16     6.64676465495150    14.28557401893065    -1.58592600000000
 16     6.64676465495150    14.28557401893065     1.58592600000000
 42     3.51405320589005    17.91486185140743     0.00000000000000
 16     5.09630174545698    16.99809282011703    -1.58592600000000
 16     5.09630174545698    16.99809282011703     1.58592600000000
 42     1.96359029639553    20.62738065259381     0.00000000000000
 16     3.54583883596246    19.71061162130342    -1.58592600000000
 16     3.54583883596246    19.71061162130342     1.58592600000000
 42    19.11402012348796    -3.82415408518351     0.00000000000000
 16    20.69626866305490    -4.74092311647390    -1.58592600000000
 16    20.69626866305490    -4.74092311647390     1.58592600000000
 42    17.56355721399344    -1.11163528399712     0.00000000000000
 16    19.14580575356038    -2.02840431528751    -1.58592600000000
 16    19.14580575356038    -2.02840431528751     1.58592600000000
 42    16.01309430449892     1.60088351718927     0.00000000000000
 16    17.59534284406585     0.68411448589887    -1.58592600000000
 16    17.59534284406585     0.68411448589887     1.58592600000000
 42    14.46263139500440     4.31340231837565     0.00000000000000
 16    16.04487993457134     3.39663328708526    -1.58592600000000
 16    16.04487993457134     3.39663328708526     1.58592600000000
 42    12.91216848550988     7.02592111956204     0.00000000000000
 16    14.49441702507682     6.10915208827165    -1.58592600000000
 16    14.49441702507682     6.10915208827165     1.58592600000000
 42    11.36170557601536     9.73843992074842     0.00000000000000
 16    12.94395411558230     8.82167088945803    -1.58592600000000
 16    12.94395411558230     8.82167088945803     1.58592600000000
 42     9.81124266652084    12.45095872193481     0.00000000000000
 16    11.39349120608778    11.53418969064442    -1.58592600000000
 16    11.39349120608778    11.53418969064442     1.58592600000000
 42     8.26077975702632    15.16347752312120     0.00000000000000
 16     9.84302829659326    14.24670849183081    -1.58592600000000
 16     9.84302829659326    14.24670849183081     1.58592600000000
 42     6.71031684753180    17.87599632430759     0.00000000000000
 16     8.29256538709874    16.95922729301719    -1.58592600000000
 16     8.29256538709874    16.95922729301719     1.58592600000000
 42     5.15985393803728    20.58851512549397     0.00000000000000
 16     6.74210247760422    19.67174609420358    -1.58592600000000
 16     6.74210247760422    19.67174609420358     1.58592600000000
 42    22.31028376512971    -3.86301961228335     0.00000000000000
 16    23.89253230469665    -4.77978864357374    -1.58592600000000
 16    23.89253230469665    -4.77978864357374     1.58592600000000
 42    20.75982085563520    -1.15050081109696     0.00000000000000
 16    22.34206939520213    -2.06726984238735    -1.58592600000000
 16    22.34206939520213    -2.06726984238735     1.58592600000000
 42    19.20935794614067     1.56201799008942     0.00000000000000
 16    20.79160648570761     0.64524895879903    -1.58592600000000
 16    20.79160648570761     0.64524895879903     1.58592600000000
 42    17.65889503664615     4.27453679127581     0.00000000000000
 16    19.24114357621309     3.35776775998542    -1.58592600000000
 16    19.24114357621309     3.35776775998542     1.58592600000000
 42    16.10843212715163     6.98705559246220     0.00000000000000
 16    17.69068066671857     6.07028656117181    -1.58592600000000
 16    17.69068066671857     6.07028656117181     1.58592600000000
 42    14.55796921765712     9.69957439364858     0.00000000000000
 16    16.14021775722405     8.78280536235819    -1.58592600000000
 16    16.14021775722405     8.78280536235819     1.58592600000000
 42    13.00750630816260    12.41209319483497     0.00000000000000
 16    14.58975484772953    11.49532416354458    -1.58592600000000
 16    14.58975484772953    11.49532416354458     1.58592600000000
 42    11.45704339866808    15.12461199602136     0.00000000000000
 16    13.03929193823501    14.20784296473097    -1.58592600000000
 16    13.03929193823501    14.20784296473097     1.58592600000000
 42     9.90658048917356    17.83713079720775     0.00000000000000
 16    11.48882902874049    16.92036176591735    -1.58592600000000
 16    11.48882902874049    16.92036176591735     1.58592600000000
 16     9.93836611924597    19.63288056710374    -1.58592600000000
 16     9.93836611924597    19.63288056710374     1.58592600000000
 42    25.50654740677147    -3.90188513938319     0.00000000000000
 16    27.08879594633840    -4.81865417067358    -1.58592600000000
 16    27.08879594633840    -4.81865417067358     1.58592600000000
 42    23.95608449727695    -1.18936633819680     0.00000000000000
 16    25.53833303684388    -2.10613536948720    -1.58592600000000
 16    25.53833303684388    -2.10613536948720     1.58592600000000
 42    22.40562158778243     1.52315246298958     0.00000000000000
 16    23.98787012734936     0.60638343169919    -1.58592600000000
 16    23.98787012734936     0.60638343169919     1.58592600000000
 42    20.85515867828791     4.23567126417597     0.00000000000000
 16    22.43740721785484     3.31890223288558    -1.58592600000000
 16    22.43740721785484     3.31890223288558     1.58592600000000
 42    19.30469576879339     6.94819006536236     0.00000000000000
 16    20.88694430836032     6.03142103407197    -1.58592600000000
 16    20.88694430836032     6.03142103407197     1.58592600000000
 42    17.75423285929887     9.66070886654874     0.00000000000000
 16    19.33648139886580     8.74393983525835    -1.58592600000000
 16    19.33648139886580     8.74393983525835     1.58592600000000
 42    16.20376994980435    12.37322766773513     0.00000000000000
 16    17.78601848937128    11.45645863644474    -1.58592600000000
 16    17.78601848937128    11.45645863644474     1.58592600000000
 42    14.65330704030983    15.08574646892152     0.00000000000000
 16    16.23555557987677    14.16897743763113    -1.58592600000000
 16    16.23555557987677    14.16897743763113     1.58592600000000
 42    13.10284413081531    17.79826527010791     0.00000000000000
 16    14.68509267038225    16.88149623881751    -1.58592600000000
 16    14.68509267038225    16.88149623881751     1.58592600000000
 42    30.25327395790774    -6.65326946766942     0.00000000000000
 42    28.70281104841322    -3.94075066648303     0.00000000000000
 16    30.28505958798016    -4.85751969777342    -1.58592600000000
 16    30.28505958798016    -4.85751969777342     1.58592600000000
 42    27.15234813891870    -1.22823186529664     0.00000000000000
 16    28.73459667848564    -2.14500089658704    -1.58592600000000
 16    28.73459667848564    -2.14500089658704     1.58592600000000
 42    25.60188522942418     1.48428693588974     0.00000000000000
 16    27.18413376899112     0.56751790459935    -1.58592600000000
 16    27.18413376899112     0.56751790459935     1.58592600000000
 42    24.05142231992966     4.19680573707613     0.00000000000000
 16    25.63367085949660     3.28003670578574    -1.58592600000000
 16    25.63367085949660     3.28003670578574     1.58592600000000
 42    22.50095941043514     6.90932453826252     0.00000000000000
 16    24.08320795000208     5.99255550697213    -1.58592600000000
 16    24.08320795000208     5.99255550697213     1.58592600000000
 42    20.95049650094062     9.62184333944890     0.00000000000000
 16    22.53274504050756     8.70507430815851    -1.58592600000000
 16    22.53274504050756     8.70507430815851     1.58592600000000
 42    19.40003359144610    12.33436214063529     0.00000000000000
 42    33.44953759954950    -6.69213499476926     0.00000000000000
 16    35.03178613911643    -7.60890402605965    -1.58592600000000
 16    35.03178613911643    -7.60890402605965     1.58592600000000
 42    31.89907469005498    -3.97961619358287     0.00000000000000
 16    33.48132322962192    -4.89638522487326    -1.58592600000000
 16    33.48132322962192    -4.89638522487326     1.58592600000000
 42    30.34861178056046    -1.26709739239649     0.00000000000000
 34    -7.29906854822297     9.06783199476512     4.64114160000000
 34    -7.29906854822297     9.06783199476512     7.98585840000000
 34    -9.16488694658527    11.81550711011413     4.64114160000000
 34    -9.16488694658527    11.81550711011413     7.98585840000000
 34   -11.03070534494756    14.56318222546313     4.64114160000000
 34   -11.03070534494756    14.56318222546313     7.98585840000000
 42   -14.59808783000573    18.13508707129843     6.31350000000000
 34   -12.89652374330985    17.31085734081214     4.64114160000000
 34   -12.89652374330985    17.31085734081214     7.98585840000000
 42   -16.46390622836803    20.88276218664744     6.31350000000000
 34   -14.76234214167215    20.05853245616114     4.64114160000000
 34   -14.76234214167215    20.05853245616114     7.98585840000000
 42   -18.32972462673032    23.63043730199645     6.31350000000000
 34   -16.62816054003444    22.80620757151016     4.64114160000000
 34   -16.62816054003444    22.80620757151016     7.98585840000000
 42   -20.19554302509261    26.37811241734545     6.31350000000000
 34   -18.49397893839673    25.55388268685916     4.64114160000000
 34   -18.49397893839673    25.55388268685916     7.98585840000000
 42    -0.16420504522620     1.92286846663090     6.31350000000000
 34     1.53735904146968     1.09863873614460     4.64114160000000
 34     1.53735904146968     1.09863873614460     7.98585840000000
 42    -2.03002344358850     4.67054358197990     6.31350000000000
 34    -0.32845935689262     3.84631385149361     4.64114160000000
 34    -0.32845935689262     3.84631385149361     7.98585840000000
 42    -3.89584184195079     7.41821869732891     6.31350000000000
 34    -2.19427775525491     6.59398896684261     4.64114160000000
 34    -2.19427775525491     6.59398896684261     7.98585840000000
 42    -5.76166024031308    10.16589381267791     6.31350000000000
 34    -4.06009615361720     9.34166408219162     4.64114160000000
 34    -4.06009615361720     9.34166408219162     7.98585840000000
 42    -7.62747863867537    12.91356892802692     6.31350000000000
 34    -5.92591455197950    12.08933919754062     4.64114160000000
 34    -5.92591455197950    12.08933919754062     7.98585840000000
 42    -9.49329703703767    15.66124404337592     6.31350000000000
 34    -7.79173295034179    14.83701431288963     4.64114160000000
 34    -7.79173295034179    14.83701431288963     7.98585840000000
 42   -11.35911543539997    18.40891915872492     6.31350000000000
 34    -9.65755134870409    17.58468942823863     4.64114160000000
 34    -9.65755134870409    17.58468942823863     7.98585840000000
 42   -13.22493383376226    21.15659427407393     6.31350000000000
 34   -11.52336974706638    20.33236454358764     4.64114160000000
 34   -11.52336974706638    20.33236454358764     7.98585840000000
 42   -15.09075223212455    23.90426938942294     6.31350000000000
 34   -13.38918814542867    23.08003965893664     4.64114160000000
 34   -13.38918814542867    23.08003965893664     7.98585840000000
 42     4.94058574774186    -0.55097456129161     6.31350000000000
 34     6.64214983443774    -1.37520429177791     4.64114160000000
 34     6.64214983443774    -1.37520429177791     7.98585840000000
 42     3.07476734937957     2.19670055405739     6.31350000000000
 34     4.77633143607545     1.37247082357110     4.64114160000000
 34     4.77633143607545     1.37247082357110     7.98585840000000
 42     1.20894895101727     4.94437566940640     6.31350000000000
 34     2.91051303771315     4.12014593892010     4.64114160000000
 34     2.91051303771315     4.12014593892010     7.98585840000000
 42    -0.65686944734502     7.69205078475540     6.31350000000000
 34     1.04469463935086     6.86782105426911     4.64114160000000
 34     1.04469463935086     6.86782105426911     7.98585840000000
 42    -2.52268784570731    10.43972590010441     6.31350000000000
 34    -0.82112375901143     9.61549616961811     4.64114160000000
 34    -0.82112375901143     9.61549616961811     7.98585840000000
 42    -4.38850624406961    13.18740101545341     6.31350000000000
 34    -2.68694215737373    12.36317128496712     4.64114160000000
 34    -2.68694215737373    12.36317128496712     7.98585840000000
 42    -6.25432464243190    15.93507613080241     6.31350000000000
 34    -4.55276055573602    15.11084640031612     4.64114160000000
 34    -4.55276055573602    15.11084640031612     7.98585840000000
 42    -8.12014304079420    18.68275124615142     6.31350000000000
 34    -6.41857895409831    17.85852151566512     4.64114160000000
 34    -6.41857895409831    17.85852151566512     7.98585840000000
 42    -9.98596143915649    21.43042636150043     6.31350000000000
 34    -8.28439735246061    20.60619663101413     4.64114160000000
 34    -8.28439735246061    20.60619663101413     7.98585840000000
 42   -11.85177983751878    24.17810147684944     6.31350000000000
 34   -10.15021575082290    23.35387174636314     4.64114160000000
 34   -10.15021575082290    23.35387174636314     7.98585840000000
 42     8.17955814234763    -0.27714247386512     6.31350000000000
 34     9.88112222904351    -1.10137220435141     4.64114160000000
 34     9.88112222904351    -1.10137220435141     7.98585840000000
 42     6.31373974398534     2.47053264148389     6.31350000000000
 34     8.01530383068122     1.64630291099759     4.64114160000000
 34     8.01530383068122     1.64630291099759     7.98585840000000
 42     4.44792134562304     5.21820775683289     6.31350000000000
 34     6.14948543231892     4.39397802634659     4.64114160000000
 34     6.14948543231892     4.39397802634659     7.98585840000000
 42     2.58210294726075     7.96588287218190     6.31350000000000
 34     4.28366703395663     7.14165314169560     4.64114160000000
 34     4.28366703395663     7.14165314169560     7.98585840000000
 42     0.71628454889845    10.71355798753090     6.31350000000000
 34     2.41784863559433     9.88932825704461     4.64114160000000
 34     2.41784863559433     9.88932825704461     7.98585840000000
 42    -1.14953384946384    13.46123310287991     6.31350000000000
 34     0.55203023723204    12.63700337239361     4.64114160000000
 34     0.55203023723204    12.63700337239361     7.98585840000000
 42    -3.01535224782613    16.20890821822891     6.31350000000000
 34    -1.31378816113025    15.38467848774262     4.64114160000000
 34    -1.31378816113025    15.38467848774262     7.98585840000000
 42    -4.88117064618843    18.95658333357791     6.31350000000000
 34    -3.17960655949255    18.13235360309162     4.64114160000000
 34    -3.17960655949255    18.13235360309162     7.98585840000000
 42    -6.74698904455072    21.70425844892692     6.31350000000000
 34    -5.04542495785484    20.88002871844063     4.64114160000000
 34    -5.04542495785484    20.88002871844063     7.98585840000000
 34    -6.91124335621713    23.62770383378964     4.64114160000000
 34    -6.91124335621713    23.62770383378964     7.98585840000000
 42    13.28434893531569    -2.75098550178763     6.31350000000000
 42    11.41853053695340    -0.00331038643862     6.31350000000000
 34    13.12009462364928    -0.82754011692492     4.64114160000000
 34    13.12009462364928    -0.82754011692492     7.98585840000000
 42     9.55271213859110     2.74436472891038     6.31350000000000
 34    11.25427622528698     1.92013499842408     4.64114160000000
 34    11.25427622528698     1.92013499842408     7.98585840000000
 42     7.68689374022881     5.49203984425939     6.31350000000000
 34     9.38845782692469     4.66781011377309     4.64114160000000
 34     9.38845782692469     4.66781011377309     7.98585840000000
 42     5.82107534186652     8.23971495960839     6.31350000000000
 34     7.52263942856240     7.41548522912210     4.64114160000000
 34     7.52263942856240     7.41548522912210     7.98585840000000
 42     3.95525694350422    10.98739007495739     6.31350000000000
 34     5.65682103020010    10.16316034447110     4.64114160000000
 34     5.65682103020010    10.16316034447110     7.98585840000000
 42     2.08943854514193    13.73506519030640     6.31350000000000
 34     3.79100263183781    12.91083545982010     4.64114160000000
 34     3.79100263183781    12.91083545982010     7.98585840000000
 42     0.22362014677964    16.48274030565540     6.31350000000000
 34     1.92518423347552    15.65851057516911     4.64114160000000
 34     1.92518423347552    15.65851057516911     7.98585840000000
 42    -1.64219825158266    19.23041542100441     6.31350000000000
 34     0.05936583511322    18.40618569051812     4.64114160000000
 34     0.05936583511322    18.40618569051812     7.98585840000000
 42    -3.50801664994495    21.97809053635342     6.31350000000000
 34    -1.80645256324907    21.15386080586712     4.64114160000000
 34    -1.80645256324907    21.15386080586712     7.98585840000000
 42    16.52332132992146    -2.47715341436113     6.31350000000000
 34    18.22488541661734    -3.30138314484743     4.64114160000000
 34    18.22488541661734    -3.30138314484743     7.98585840000000
 42    14.65750293155917     0.27052170098787     6.31350000000000
 34    16.35906701825505    -0.55370802949843     4.64114160000000
 34    16.35906701825505    -0.55370802949843     7.98585840000000
 42    12.79168453319688     3.01819681633688     6.31350000000000
 34    14.49324861989276     2.19396708585058     4.64114160000000
 34    14.49324861989276     2.19396708585058     7.98585840000000
 42    10.92586613483458     5.76587193168588     6.31350000000000
 34    12.62743022153046     4.94164220119958     4.64114160000000
 34    12.62743022153046     4.94164220119958     7.98585840000000
 42     9.06004773647229     8.51354704703488     6.31350000000000
 34    10.76161182316817     7.68931731654859     4.64114160000000
 34    10.76161182316817     7.68931731654859     7.98585840000000
 42     7.19422933810999    11.26122216238389     6.31350000000000
 34     8.89579342480588    10.43699243189760     4.64114160000000
 34     8.89579342480588    10.43699243189760     7.98585840000000
 42     5.32841093974770    14.00889727773289     6.31350000000000
 34     7.02997502644358    13.18466754724660     4.64114160000000
 34     7.02997502644358    13.18466754724660     7.98585840000000
 42     3.46259254138541    16.75657239308190     6.31350000000000
 34     5.16415662808129    15.93234266259560     4.64114160000000
 34     5.16415662808129    15.93234266259560     7.98585840000000
 42     1.59677414302311    19.50424750843090     6.31350000000000
 34     3.29833822971899    18.68001777794461     4.64114160000000
 34     3.29833822971899    18.68001777794461     7.98585840000000
 34     1.43251983135670    21.42769289329361     4.64114160000000
 34     1.43251983135670    21.42769289329361     7.98585840000000
 42    21.62811212288953    -4.95099644228365     6.31350000000000