CRYSTAL
PRIMVEC
 37.59365801343109 0.00000000000000 -0.00000000000000
 -27.49615054720427 21.52779524830364 -0.00000000000000
 -0.00000000000000 0.00000000000000 19.57178440000000
PRIMCOORD
 540 1
 16   -19.74764287868726    15.87883306941925     2.00000000000000
 16   -19.74764287868726    15.87883306941925     5.17185200000000
 42   -23.62184027664235    18.70305078689830     3.58592600000000
 16   -21.87290021321043    18.16902405328133     2.00000000000000
 16   -21.87290021321043    18.16902405328133     5.17185200000000
 42   -25.74709761116555    20.99324177076038     3.58592600000000
 16   -23.99815754773364    20.45921503714342     2.00000000000000
 16   -23.99815754773364    20.45921503714342     5.17185200000000
 16    -5.99956760508511     5.11493544526743     2.00000000000000
 16    -5.99956760508511     5.11493544526743     5.17185200000000
 42    -9.87376500304022     7.93915316274648     3.58592600000000
 16    -8.12482493960831     7.40512642912952     2.00000000000000
 16    -8.12482493960831     7.40512642912952     5.17185200000000
 42   -11.99902233756342    10.22934414660857     3.58592600000000
 16   -10.25008227413150     9.69531741299160     2.00000000000000
 16   -10.25008227413150     9.69531741299160     5.17185200000000
 42   -14.12427967208662    12.51953513047066     3.58592600000000
 16   -12.37533960865471    11.98550839685370     2.00000000000000
 16   -12.37533960865471    11.98550839685370     5.17185200000000
 42   -16.24953700660981    14.80972611433275     3.58592600000000
 16   -14.50059694317790    14.27569938071579     2.00000000000000
 16   -14.50059694317790    14.27569938071579     5.17185200000000
 42   -18.37479434113301    17.09991709819484     3.58592600000000
 16   -16.62585427770109    16.56589036457788     2.00000000000000
 16   -16.62585427770109    16.56589036457788     5.17185200000000
 42   -20.50005167565620    19.39010808205692     3.58592600000000
 16   -18.75111161222429    18.85608134843996     2.00000000000000
 16   -18.75111161222429    18.85608134843996     5.17185200000000
 16   -20.87636894674749    21.14627233230205     2.00000000000000
 16   -20.87636894674749    21.14627233230205     5.17185200000000
 42    -0.37620439848448     1.75563750631884     3.58592600000000
 16     1.37273566494743     1.22161077270188     2.00000000000000
 16     1.37273566494743     1.22161077270188     5.17185200000000
 42    -2.50146173300768     4.04582849018093     3.58592600000000
 16    -0.75252166957577     3.51180175656397     2.00000000000000
 16    -0.75252166957577     3.51180175656397     5.17185200000000
 42    -4.62671906753087     6.33601947404301     3.58592600000000
 16    -2.87777900409897     5.80199274042605     2.00000000000000
 16    -2.87777900409897     5.80199274042605     5.17185200000000
 42    -6.75197640205407     8.62621045790511     3.58592600000000
 16    -5.00303633862216     8.09218372428815     2.00000000000000
 16    -5.00303633862216     8.09218372428815     5.17185200000000
 42    -8.87723373657727    10.91640144176720     3.58592600000000
 16    -7.12829367314536    10.38237470815023     2.00000000000000
 16    -7.12829367314536    10.38237470815023     5.17185200000000
 42   -11.00249107110046    13.20659242562928     3.58592600000000
 16    -9.25355100766855    12.67256569201232     2.00000000000000
 16    -9.25355100766855    12.67256569201232     5.17185200000000
 42   -13.12774840562365    15.49678340949137     3.58592600000000
 16   -11.37880834219175    14.96275667587441     2.00000000000000
 16   -11.37880834219175    14.96275667587441     5.17185200000000
 42   -15.25300574014685    17.78697439335347     3.58592600000000
 16   -13.50406567671495    17.25294765973651     2.00000000000000
 16   -13.50406567671495    17.25294765973651     5.17185200000000
 42   -17.37826307467005    20.07716537721555     3.58592600000000
 16   -15.62932301123814    19.54313864359859     2.00000000000000
 16   -15.62932301123814    19.54313864359859     5.17185200000000
 42     4.87084153702486     0.15250381761538     3.58592600000000
 42     2.74558420250167     2.44269480147747     3.58592600000000
 16     4.49452426593358     1.90866806786051     2.00000000000000
 16     4.49452426593358     1.90866806786051     5.17185200000000
 42     0.62032686797847     4.73288578533956     3.58592600000000
 16     2.36926693141039     4.19885905172259     2.00000000000000
 16     2.36926693141039     4.19885905172259     5.17185200000000
 42    -1.50493046654473     7.02307676920164     3.58592600000000
 16     0.24400959688719     6.48905003558468     2.00000000000000
 16     0.24400959688719     6.48905003558468     5.17185200000000
 42    -3.63018780106792     9.31326775306374     3.58592600000000
 16    -1.88124773763601     8.77924101944678     2.00000000000000
 16    -1.88124773763601     8.77924101944678     5.17185200000000
 42    -5.75544513559112    11.60345873692583     3.58592600000000
 16    -4.00650507215920    11.06943200330886     2.00000000000000
 16    -4.00650507215920    11.06943200330886     5.17185200000000
 42    -7.88070247011432    13.89364972078791     3.58592600000000
 16    -6.13176240668239    13.35962298717095     2.00000000000000
 16    -6.13176240668239    13.35962298717095     5.17185200000000
 42   -10.00595980463751    16.18384070465000     3.58592600000000
 16    -8.25701974120560    15.64981397103304     2.00000000000000
 16    -8.25701974120560    15.64981397103304     5.17185200000000
 42   -12.13121713916071    18.47403168851210     3.58592600000000
 16   -10.38227707572879    17.94000495489513     2.00000000000000
 16   -10.38227707572879    17.94000495489513     5.17185200000000
 42   -14.25647447368390    20.76422267237417     3.58592600000000
 16   -12.50753441025199    20.23019593875722     2.00000000000000
 16   -12.50753441025199    20.23019593875722     5.17185200000000
 42     7.99263013801102     0.83956111277400     3.58592600000000
 16     9.74157020144292     0.30553437915704     2.00000000000000
 16     9.74157020144292     0.30553437915704     5.17185200000000
 42     5.86737280348782     3.12975209663610     3.58592600000000
 16     7.61631286691973     2.59572536301913     2.00000000000000
 16     7.61631286691973     2.59572536301913     5.17185200000000
 42     3.74211546896463     5.41994308049818     3.58592600000000
 16     5.49105553239653     4.88591634688122     2.00000000000000
 16     5.49105553239653     4.88591634688122     5.17185200000000
 42     1.61685813444143     7.71013406436027     3.58592600000000
 16     3.36579819787334     7.17610733074331     2.00000000000000
 16     3.36579819787334     7.17610733074331     5.17185200000000
 42    -0.50839920008177    10.00032504822236     3.58592600000000
 16     1.24054086335014     9.46629831460540     2.00000000000000
 16     1.24054086335014     9.46629831460540     5.17185200000000
 42    -2.63365653460496    12.29051603208446     3.58592600000000
 16    -0.88471647117306    11.75648929846749     2.00000000000000
 16    -0.88471647117306    11.75648929846749     5.17185200000000
 42    -4.75891386912816    14.58070701594654     3.58592600000000
 16    -3.00997380569625    14.04668028232958     2.00000000000000
 16    -3.00997380569625    14.04668028232958     5.17185200000000
 42    -6.88417120365136    16.87089799980863     3.58592600000000
 16    -5.13523114021945    16.33687126619167     2.00000000000000
 16    -5.13523114021945    16.33687126619167     5.17185200000000
 42    -9.00942853817456    19.16108898367072     3.58592600000000
 16    -7.26048847474265    18.62706225005376     2.00000000000000
 16    -7.26048847474265    18.62706225005376     5.17185200000000
 42   -11.13468587269775    21.45127996753281     3.58592600000000
 16    -9.38574580926585    20.91725323391584     2.00000000000000
 16    -9.38574580926585    20.91725323391584     5.17185200000000
 42    11.11441873899716     1.52661840793263     3.58592600000000
 16    12.86335880242908     0.99259167431567     2.00000000000000
 16    12.86335880242908     0.99259167431567     5.17185200000000
 42     8.98916140447397     3.81680939179472     3.58592600000000
 16    10.73810146790589     3.28278265817775     2.00000000000000
 16    10.73810146790589     3.28278265817775     5.17185200000000
 42     6.86390406995077     6.10700037565681     3.58592600000000
 16     8.61284413338269     5.57297364203985     2.00000000000000
 16     8.61284413338269     5.57297364203985     5.17185200000000
 42     4.73864673542758     8.39719135951890     3.58592600000000
 16     6.48758679885949     7.86316462590194     2.00000000000000
 16     6.48758679885949     7.86316462590194     5.17185200000000
 42     2.61338940090438    10.68738234338099     3.58592600000000
 16     4.36232946433630    10.15335560976402     2.00000000000000
 16     4.36232946433630    10.15335560976402     5.17185200000000
 42     0.48813206638118    12.97757332724308     3.58592600000000
 16     2.23707212981310    12.44354659362611     2.00000000000000
 16     2.23707212981310    12.44354659362611     5.17185200000000
 42    -1.63712526814201    15.26776431110516     3.58592600000000
 16     0.11181479528990    14.73373757748820     2.00000000000000
 16     0.11181479528990    14.73373757748820     5.17185200000000
 42    -3.76238260266521    17.55795529496726     3.58592600000000
 16    -2.01344253923329    17.02392856135029     2.00000000000000
 16    -2.01344253923329    17.02392856135029     5.17185200000000
 42    -5.88763993718841    19.84814627882935     3.58592600000000
 16    -4.13869987375649    19.31411954521239     2.00000000000000
 16    -4.13869987375649    19.31411954521239     5.17185200000000
 42    14.23620733998332     2.21367570309126     3.58592600000000
 16    15.98514740341523     1.67964896947430     2.00000000000000
 16    15.98514740341523     1.67964896947430     5.17185200000000
 42    12.11095000546013     4.50386668695335     3.58592600000000
 16    13.85989006889204     3.96983995333638     2.00000000000000
 16    13.85989006889204     3.96983995333638     5.17185200000000
 42     9.98569267093693     6.79405767081543     3.58592600000000
 16    11.73463273436884     6.26003093719847     2.00000000000000
 16    11.73463273436884     6.26003093719847     5.17185200000000
 42     7.86043533641373     9.08424865467753     3.58592600000000
 16     9.60937539984564     8.55022192106057     2.00000000000000
 16     9.60937539984564     8.55022192106057     5.17185200000000
 42     5.73517800189054    11.37443963853962     3.58592600000000
 16     7.48411806532244    10.84041290492265     2.00000000000000
 16     7.48411806532244    10.84041290492265     5.17185200000000
 42     3.60992066736734    13.66463062240170     3.58592600000000
 16     5.35886073079925    13.13060388878474     2.00000000000000
 16     5.35886073079925    13.13060388878474     5.17185200000000
 42     1.48466333284414    15.95482160626380     3.58592600000000
 16     3.23360339627605    15.42079487264683     2.00000000000000
 16     3.23360339627605    15.42079487264683     5.17185200000000
 42    -0.64059400167905    18.24501259012589     3.58592600000000
 16     1.10834606175285    17.71098585650892     2.00000000000000
 16     1.10834606175285    17.71098585650892     5.17185200000000
 42    -2.76585133620225    20.53520357398797     3.58592600000000
 16    -1.01691127277035    20.00117684037101     2.00000000000000
 16    -1.01691127277035    20.00117684037101     5.17185200000000
 42    19.48325327549267     0.61054201438780     3.58592600000000
 16    21.23219333892458     0.07651528077084     2.00000000000000
 16    21.23219333892458     0.07651528077084     5.17185200000000
 42    17.35799594096946     2.90073299824989     3.58592600000000
 16    19.10693600440138     2.36670626463293     2.00000000000000
 16    19.10693600440138     2.36670626463293     5.17185200000000
 42    15.23273860644627     5.19092398211198     3.58592600000000
 16    16.98167866987818     4.65689724849501     2.00000000000000
 16    16.98167866987818     4.65689724849501     5.17185200000000
 42    13.10748127192307     7.48111496597406     3.58592600000000
 16    14.85642133535499     6.94708823235710     2.00000000000000
 16    14.85642133535499     6.94708823235710     5.17185200000000
 42    10.98222393739988     9.77130594983615     3.58592600000000
 16    12.73116400083179     9.23727921621919     2.00000000000000
 16    12.73116400083179     9.23727921621919     5.17185200000000
 42     8.85696660287668    12.06149693369824     3.58592600000000
 16    10.60590666630860    11.52747020008128     2.00000000000000
 16    10.60590666630860    11.52747020008128     5.17185200000000
 42     6.73170926835349    14.35168791756033     3.58592600000000
 16     8.48064933178540    13.81766118394337     2.00000000000000
 16     8.48064933178540    13.81766118394337     5.17185200000000
 42     4.60645193383028    16.64187890142242     3.58592600000000
 16     6.35539199726220    16.10785216780546     2.00000000000000
 16     6.35539199726220    16.10785216780546     5.17185200000000
 42     2.48119459930709    18.93206988528451     3.58592600000000
 16     4.23013466273900    18.39804315166754     2.00000000000000
 16     4.23013466273900    18.39804315166754     5.17185200000000
 42     0.35593726478389    21.22226086914660     3.58592600000000
 16     2.10487732821581    20.68823413552964     2.00000000000000
 16     2.10487732821581    20.68823413552964     5.17185200000000
 42    22.60504187647881     1.29759930954642     3.58592600000000
 16    24.35398193991073     0.76357257592946     2.00000000000000
 16    24.35398193991073     0.76357257592946     5.17185200000000
 42    20.47978454195562     3.58779029340852     3.58592600000000
 16    22.22872460538753     3.05376355979156     2.00000000000000
 16    22.22872460538753     3.05376355979156     5.17185200000000
 42    18.35452720743242     5.87798127727060     3.58592600000000
 16    20.10346727086434     5.34395454365364     2.00000000000000
 16    20.10346727086434     5.34395454365364     5.17185200000000
 42    16.22926987290922     8.16817226113269     3.58592600000000
 16    17.97820993634113     7.63414552751573     2.00000000000000
 16    17.97820993634113     7.63414552751573     5.17185200000000
 42    14.10401253838602    10.45836324499478     3.58592600000000
 16    15.85295260181794     9.92433651137782     2.00000000000000
 16    15.85295260181794     9.92433651137782     5.17185200000000
 42    11.97875520386284    12.74855422885687     3.58592600000000
 16    13.72769526729474    12.21452749523990     2.00000000000000
 16    13.72769526729474    12.21452749523990     5.17185200000000
 42     9.85349786933963    15.03874521271896     3.58592600000000
 16    11.60243793277155    14.50471847910200     2.00000000000000
 16    11.60243793277155    14.50471847910200     5.17185200000000
 42     7.72824053481644    17.32893619658105     3.58592600000000
 16     9.47718059824835    16.79490946296409     2.00000000000000
 16     9.47718059824835    16.79490946296409     5.17185200000000
 42     5.60298320029325    19.61912718044314     3.58592600000000
 16     7.35192326372515    19.08510044682617     2.00000000000000
 16     7.35192326372515    19.08510044682617     5.17185200000000
 16     5.22666592920196    21.37529143068826     2.00000000000000
 16     5.22666592920196    21.37529143068826     5.17185200000000
 42    25.72683047746496     1.98465660470505     3.58592600000000
 16    27.47577054089687     1.45062987108809     2.00000000000000
 16    27.47577054089687     1.45062987108809     5.17185200000000
 42    23.60157314294177     4.27484758856714     3.58592600000000
 16    25.35051320637368     3.74082085495017     2.00000000000000
 16    25.35051320637368     3.74082085495017     5.17185200000000
 42    21.47631580841858     6.56503857242923     3.58592600000000
 16    23.22525587185048     6.03101183881226     2.00000000000000
 16    23.22525587185048     6.03101183881226     5.17185200000000
 42    19.35105847389538     8.85522955629132     3.58592600000000
 16    21.09999853732729     8.32120282267436     2.00000000000000
 16    21.09999853732729     8.32120282267436     5.17185200000000
 42    17.22580113937217    11.14542054015341     3.58592600000000
 16    18.97474120280408    10.61139380653645     2.00000000000000
 16    18.97474120280408    10.61139380653645     5.17185200000000
 42    15.10054380484898    13.43561152401549     3.58592600000000
 16    16.84948386828089    12.90158479039853     2.00000000000000
 16    16.84948386828089    12.90158479039853     5.17185200000000
 42    12.97528647032578    15.72580250787759     3.58592600000000
 16    14.72422653375769    15.19177577426062     2.00000000000000
 16    14.72422653375769    15.19177577426062     5.17185200000000
 42    10.85002913580259    18.01599349173968     3.58592600000000
 16    12.59896919923451    17.48196675812272     2.00000000000000
 16    12.59896919923451    17.48196675812272     5.17185200000000
 42     8.72477180127939    20.30618447560177     3.58592600000000
 16    10.47371186471131    19.77215774198480     2.00000000000000
 16    10.47371186471131    19.77215774198480     5.17185200000000
 42    30.97387641297431     0.38152291600159     3.58592600000000
 42    28.84861907845111     2.67171389986368     3.58592600000000
 16    30.59755914188302     2.13768716624672     2.00000000000000
 16    30.59755914188302     2.13768716624672     5.17185200000000
 42    26.72336174392791     4.96190488372577     3.58592600000000
 16    28.47230180735983     4.42787815010880     2.00000000000000
 16    28.47230180735983     4.42787815010880     5.17185200000000
 42    24.59810440940472     7.25209586758785     3.58592600000000
 16    26.34704447283663     6.71806913397089     2.00000000000000
 16    26.34704447283663     6.71806913397089     5.17185200000000
 42    22.47284707488152     9.54228685144995     3.58592600000000
 16    24.22178713831343     9.00826011783299     2.00000000000000
 16    24.22178713831343     9.00826011783299     5.17185200000000
 42    20.34758974035832    11.83247783531204     3.58592600000000
 16    22.09652980379024    11.29845110169508     2.00000000000000
 16    22.09652980379024    11.29845110169508     5.17185200000000
 42    18.22233240583513    14.12266881917412     3.58592600000000
 16    19.97127246926705    13.58864208555716     2.00000000000000
 16    19.97127246926705    13.58864208555716     5.17185200000000
 42    16.09707507131193    16.41285980303621     3.58592600000000
 42    34.09566501396047     1.06858021116022     3.58592600000000
 16    35.84460507739237     0.53455347754325     2.00000000000000
 16    35.84460507739237     0.53455347754325     5.17185200000000
 42    31.97040767943727     3.35877119502231     3.58592600000000
 16    33.71934774286918     2.82474446140535     2.00000000000000
 16    33.71934774286918     2.82474446140535     5.17185200000000
 42    29.84515034491407     5.64896217888439     3.58592600000000
 34    -9.16544312481068     7.17611531978163     8.22706760000000
 34    -9.16544312481068     7.17611531978163    11.57178440000000
 34   -11.60581169354797     9.42902412483666     8.22706760000000
 34   -11.60581169354797     9.42902412483666    11.57178440000000
 34   -14.04618026228526    11.68193292989169     8.22706760000000
 34   -14.04618026228526    11.68193292989169    11.57178440000000
 42    19.26295059103751    14.35167992852201     9.89942600000000
 34   -16.48654883102256    13.93484173494673     8.22706760000000
 34   -16.48654883102256    13.93484173494673    11.57178440000000
 42   -20.77107599113089    16.60458873357705     9.89942600000000
 34   -18.92691739975985    16.18775054000175     8.22706760000000
 34   -18.92691739975985    16.18775054000175    11.57178440000000
 42   -23.21144455986818    18.85749753863209     9.89942600000000
 34   -21.36728596849714    18.44065934505680     8.22706760000000
 34   -21.36728596849714    18.44065934505680    11.57178440000000
 42   -25.65181312860546    21.11040634368711     9.89942600000000
 34   -23.80765453723443    20.69356815011183     8.22706760000000
 34   -23.80765453723443    20.69356815011183    11.57178440000000
 42    -0.59603115013850     1.83551990043851     9.89942600000000
 34     1.24812744123253     1.41868170686321     8.22706760000000
 34     1.24812744123253     1.41868170686321    11.57178440000000
 42    -3.03639971887580     4.08842870549353     9.89942600000000
 34    -1.19224112750477     3.67159051191824     8.22706760000000
 34    -1.19224112750477     3.67159051191824    11.57178440000000
 42    -5.47676828761309     6.34133751054857     9.89942600000000
 34    -3.63260969624206     5.92449931697327     8.22706760000000
 34    -3.63260969624206     5.92449931697327    11.57178440000000
 42    -7.91713685635038     8.59424631560360     9.89942600000000
 34    -6.07297826497935     8.17740812202831     8.22706760000000
 34    -6.07297826497935     8.17740812202831    11.57178440000000
 42   -10.35750542508767    10.84715512065864     9.89942600000000
 34    -8.51334683371665    10.43031692708334     8.22706760000000
 34    -8.51334683371665    10.43031692708334    11.57178440000000
 42   -12.79787399382497    13.10006392571366     9.89942600000000
 34   -10.95371540245394    12.68322573213838     8.22706760000000
 34   -10.95371540245394    12.68322573213838    11.57178440000000
 42   -15.23824256256227    15.35297273076869     9.89942600000000
 34   -13.39408397119124    14.93613453719340     8.22706760000000
 34   -13.39408397119124    14.93613453719340    11.57178440000000
 42   -17.67861113129956    17.60588153582373     9.89942600000000
 34   -15.83445253992853    17.18904334224844     8.22706760000000
 34   -15.83445253992853    17.18904334224844    11.57178440000000
 42   -20.11897970003686    19.85879034087877     9.89942600000000
 34   -18.27482110866583    19.44195214730347     8.22706760000000
 34   -18.27482110866583    19.44195214730347    11.57178440000000
 42     4.93680227843012     0.58390389763016     9.89942600000000
 34     6.78096086980115     0.16706570405486     8.22706760000000
 34     6.78096086980115     0.16706570405486    11.57178440000000
 42     2.49643370969283     2.83681270268518     9.89942600000000
 34     4.34059230106386     2.41997450910990     8.22706760000000
 34     4.34059230106386     2.41997450910990    11.57178440000000
 42     0.05606514095553     5.08972150774022     9.89942600000000
 34     1.90022373232655     4.67288331416492     8.22706760000000
 34     1.90022373232655     4.67288331416492    11.57178440000000
 42    -2.38430342778176     7.34263031279525     9.89942600000000
 34    -0.54014483641074     6.92579211921996     8.22706760000000
 34    -0.54014483641074     6.92579211921996    11.57178440000000
 42    -4.82467199651906     9.59553911785029     9.89942600000000
 34    -2.98051340514803     9.17870092427499     8.22706760000000
 34    -2.98051340514803     9.17870092427499    11.57178440000000
 42    -7.26504056525636    11.84844792290532     9.89942600000000
 34    -5.42088197388533    11.43160972933002     8.22706760000000
 34    -5.42088197388533    11.43160972933002    11.57178440000000
 42    -9.70540913399365    14.10135672796034     9.89942600000000
 34    -7.86125054262262    13.68451853438505     8.22706760000000
 34    -7.86125054262262    13.68451853438505    11.57178440000000
 42   -12.14577770273095    16.35426553301538     9.89942600000000
 34   -10.30161911135990    15.93742733944008     8.22706760000000
 34   -10.30161911135990    15.93742733944008    11.57178440000000
 42   -14.58614627146824    18.60717433807041     9.89942600000000
 34   -12.74198768009720    18.19033614449512     8.22706760000000
 34   -12.74198768009720    18.19033614449512    11.57178440000000
 42   -17.02651484020553    20.86008314312545     9.89942600000000
 34   -15.18235624883450    20.44324494955016     8.22706760000000
 34   -15.18235624883450    20.44324494955016    11.57178440000000
 42     8.02926713826144     1.58519669987683     9.89942600000000
 34     9.87342572963247     1.16835850630154     8.22706760000000
 34     9.87342572963247     1.16835850630154    11.57178440000000
 42     5.58889856952415     3.83810550493187     9.89942600000000
 34     7.43305716089518     3.42126731135657     8.22706760000000
 34     7.43305716089518     3.42126731135657    11.57178440000000
 42     3.14853000078685     6.09101430998690     9.89942600000000
 34     4.99268859215788     5.67417611641160     8.22706760000000
 34     4.99268859215788     5.67417611641160    11.57178440000000
 42     0.70816143204956     8.34392311504193     9.89942600000000
 34     2.55232002342059     7.92708492146664     8.22706760000000
 34     2.55232002342059     7.92708492146664    11.57178440000000
 42    -1.73220713668774    10.59683192009696     9.89942600000000
 34     0.11195145468329    10.17999372652167     8.22706760000000
 34     0.11195145468329    10.17999372652167    11.57178440000000
 42    -4.17257570542503    12.84974072515200     9.89942600000000
 34    -2.32841711405400    12.43290253157670     8.22706760000000
 34    -2.32841711405400    12.43290253157670    11.57178440000000
 42    -6.61294427416232    15.10264953020703     9.89942600000000
 34    -4.76878568279129    14.68581133663174     8.22706760000000
 34    -4.76878568279129    14.68581133663174    11.57178440000000
 42    -9.05331284289962    17.35555833526206     9.89942600000000
 34    -7.20915425152859    16.93872014168677     8.22706760000000
 34    -7.20915425152859    16.93872014168677    11.57178440000000
 42   -11.49368141163691    19.60846714031709     9.89942600000000
 34    -9.64952282026588    19.19162894674180     8.22706760000000
 34    -9.64952282026588    19.19162894674180    11.57178440000000
 34   -12.08989138900318    21.44453775179684     8.22706760000000
 34   -12.08989138900318    21.44453775179684    11.57178440000000
 42    13.56210056683006     0.33358069706848     9.89942600000000
 42    11.12173199809276     2.58648950212352     9.89942600000000
 34    12.96589058946379     2.16965130854822     8.22706760000000
 34    12.96589058946379     2.16965130854822    11.57178440000000
 42     8.68136342935546     4.83939830717855     9.89942600000000
 34    10.52552202072649     4.42256011360325     8.22706760000000
 34    10.52552202072649     4.42256011360325    11.57178440000000
 42     6.24099486061817     7.09230711223358     9.89942600000000
 34     8.08515345198921     6.67546891865828     8.22706760000000
 34     8.08515345198921     6.67546891865828    11.57178440000000
 42     3.80062629188089     9.34521591728861     9.89942600000000
 34     5.64478488325191     8.92837772371332     8.22706760000000
 34     5.64478488325191     8.92837772371332    11.57178440000000
 42     1.36025772314358    11.59812472234364     9.89942600000000
 34     3.20441631451461    11.18128652876835     8.22706760000000
 34     3.20441631451461    11.18128652876835    11.57178440000000
 42    -1.08011084559370    13.85103352739868     9.89942600000000
 34     0.76404774577732    13.43419533382338     8.22706760000000
 34     0.76404774577732    13.43419533382338    11.57178440000000
 42    -3.52047941433100    16.10394233245371     9.89942600000000
 34    -1.67632082295997    15.68710413887842     8.22706760000000
 34    -1.67632082295997    15.68710413887842    11.57178440000000
 42    -5.96084798306830    18.35685113750874     9.89942600000000
 34    -4.11668939169727    17.94001294393345     8.22706760000000
 34    -4.11668939169727    17.94001294393345    11.57178440000000
 42    -8.40121655180559    20.60975994256378     9.89942600000000
 34    -6.55705796043456    20.19292174898848     8.22706760000000
 34    -6.55705796043456    20.19292174898848    11.57178440000000
 42    16.65456542666137     1.33487349931517     9.89942600000000
 34    18.49872401803241     0.91803530573987     8.22706760000000
 34    18.49872401803241     0.91803530573987    11.57178440000000
 42    14.21419685792409     3.58778230437020     9.89942600000000
 34    16.05835544929512     3.17094411079490     8.22706760000000
 34    16.05835544929512     3.17094411079490    11.57178440000000
 42    11.77382828918680     5.84069110942523     9.89942600000000
 34    13.61798688055783     5.42385291584994     8.22706760000000
 34    13.61798688055783     5.42385291584994    11.57178440000000
 42     9.33345972044950     8.09359991448026     9.89942600000000
 34    11.17761831182052     7.67676172090496     8.22706760000000
 34    11.17761831182052     7.67676172090496    11.57178440000000
 42     6.89309115171221    10.34650871953529     9.89942600000000
 34     8.73724974308324     9.92967052596000     8.22706760000000
 34     8.73724974308324     9.92967052596000    11.57178440000000
 42     4.45272258297491    12.59941752459032     9.89942600000000
 34     6.29688117434595    12.18257933101504     8.22706760000000
 34     6.29688117434595    12.18257933101504    11.57178440000000
 42     2.01235401423762    14.85232632964535     9.89942600000000
 34     3.85651260560865    14.43548813607006     8.22706760000000
 34     3.85651260560865    14.43548813607006    11.57178440000000
 42    -0.42801455449968    17.10523513470039     9.89942600000000
 34     1.41614403687135    16.68839694112510     8.22706760000000
 34     1.41614403687135    16.68839694112510    11.57178440000000
 42    -2.86838312323697    19.35814393975541     9.89942600000000
 34    -1.02422453186595    18.94130574618013     8.22706760000000
 34    -1.02422453186595    18.94130574618013    11.57178440000000
 34    -3.46459310060323    21.19421455123516     8.22706760000000
 34    -3.46459310060323    21.19421455123516    11.57178440000000
 42    22.18739885523000     0.08325749650681     9.89942600000000