LAMMPS data file via write_data, version 27 Jun 2024, timestep = 170000, units = metal

6 atoms
6 atom types

0 3.16021 xlo xhi
0 2.7368221412936213 ylo yhi
0 100 zlo zhi
-1.5801049999999994 0 0 xy xz yz

Masses

1 95.95
2 32.06
3 32.06
4 95.95
5 32.06
6 32.06

Atoms # atomic

1 1 0.7854461245884903 2.279129311332907 1.6386612282046398 2 6 0
3 3 2.3648669813667005 1.366336987126037 3.1918784707261274 2 7 0
4 4 0.7948502085393035 0.45812077852419547 7.705358973104072 -3 -7 0
5 5 0.7940885577712917 2.2835193816851813 6.151728798896898 -3 -7 0
2 2 2.365478704153212 1.3655124355441528 0.08364375218722997 2 7 0
6 6 0.7954131299582203 2.2830024200783 9.259210642707126 -3 -7 0

Velocities

1 -0.01489167895387382 -0.031689807966826376 -0.024398934461196686
3 0.009070769116764304 0.047895370696629934 0.01444206489889252
4 -0.0042627571834523755 0.020006005954928664 0.009475383272656627
5 0.005541533498079209 0.004310177252131362 -0.011636446610617367
2 0.0057277630857690606 -0.0331840634812415 0.0006558869457917947
6 0.036985827854485634 0.015946101404020602 0.04120208604916507
