ITEM: TIMESTEP
0
ITEM: NUMBER OF ATOMS
6
ITEM: BOX BOUNDS xy xz yz pp pp pp
-1.5801049999999994e+00 3.1602100000000002e+00 -1.5801049999999994e+00
0.0000000000000000e+00 2.7368221412936213e+00 0.0000000000000000e+00
0.0000000000000000e+00 1.0000000000000000e+02 0.0000000000000000e+00
ITEM: ATOMS id type x y z
1 1 0 0 1.58593
2 2 -2.92152e-17 1.82491 0
3 3 -2.92152e-17 1.82491 3.17185
4 4 0 0 7.75778
5 5 -2.92152e-17 1.82491 6.17185
6 6 -2.92152e-17 1.82491 9.3437
ITEM: TIMESTEP
200
ITEM: NUMBER OF ATOMS
6
ITEM: BOX BOUNDS xy xz yz pp pp pp
-1.5801049999999994e+00 3.1602100000000002e+00 -1.5801049999999994e+00
0.0000000000000000e+00 2.7368221412936213e+00 0.0000000000000000e+00
0.0000000000000000e+00 1.0000000000000000e+02 0.0000000000000000e+00
ITEM: ATOMS id type x y z
1 1 0.633248 2.20788 1.41389
2 2 -0.938239 1.35418 -0.148706
3 3 -0.949036 1.3063 2.94717
4 4 0.946574 0.506207 7.92948
5 5 0.967589 2.37228 6.41622
6 6 0.920532 2.33493 9.47373
ITEM: TIMESTEP
400
ITEM: NUMBER OF ATOMS
6
ITEM: BOX BOUNDS xy xz yz pp pp pp
-1.5801049999999994e+00 3.1602100000000002e+00 -1.5801049999999994e+00
0.0000000000000000e+00 2.7368221412936213e+00 0.0000000000000000e+00
0.0000000000000000e+00 1.0000000000000000e+02 0.0000000000000000e+00
ITEM: ATOMS id type x y z
1 1 -0.164024 0.484365 1.38725
2 2 -0.163706 2.30607 -0.176836
3 3 -0.164126 2.30655 2.96212
4 4 1.74397 2.25643 7.95856
5 5 0.174503 1.33662 6.37324
6 6 0.153811 1.33853 9.52259
ITEM: TIMESTEP
600
ITEM: NUMBER OF ATOMS
6
ITEM: BOX BOUNDS xy xz yz pp pp pp
-1.5801049999999994e+00 3.1602100000000002e+00 -1.5801049999999994e+00
0.0000000000000000e+00 2.7368221412936213e+00 0.0000000000000000e+00
0.0000000000000000e+00 1.0000000000000000e+02 0.0000000000000000e+00
ITEM: ATOMS id type x y z
1 1 2.63993 -0.757899 1.53106
2 2 -0.528454 1.02883 100.018
3 3 -0.513925 1.06413 3.0819
4 4 -1.05942 3.51066 7.80918
5 5 0.502088 2.56295 6.25711
6 6 0.539058 2.59605 9.3411
ITEM: TIMESTEP
800
ITEM: NUMBER OF ATOMS
6
ITEM: BOX BOUNDS xy xz yz pp pp pp
-1.5801049999999994e+00 3.1602100000000002e+00 -1.5801049999999994e+00
0.0000000000000000e+00 2.7368221412936213e+00 0.0000000000000000e+00
0.0000000000000000e+00 1.0000000000000000e+02 0.0000000000000000e+00
ITEM: ATOMS id type x y z
1 1 0.831176 0.658231 1.56219
2 2 0.829877 2.50511 -0.0505333
3 3 0.826924 2.49799 3.12163
4 4 0.749423 2.06535 7.78906
5 5 -0.843945 1.17783 6.22619
6 6 -0.814334 1.15836 9.36755
ITEM: TIMESTEP
1000
ITEM: NUMBER OF ATOMS
6
ITEM: BOX BOUNDS xy xz yz pp pp pp
-1.5801049999999994e+00 3.1602100000000002e+00 -1.5801049999999994e+00
0.0000000000000000e+00 2.7368221412936213e+00 0.0000000000000000e+00
0.0000000000000000e+00 1.0000000000000000e+02 0.0000000000000000e+00
ITEM: ATOMS id type x y z
1 1 -1.04409 2.43043 1.6135
2 2 0.549529 1.55016 100.08
3 3 0.537612 1.51875 3.16262
4 4 2.624 0.292278 7.72414
5 5 -0.529876 2.15169 6.19813
6 6 -0.556661 2.12129 9.26497
ITEM: TIMESTEP
1200
ITEM: NUMBER OF ATOMS
6
ITEM: BOX BOUNDS xy xz yz pp pp pp
-1.5801049999999994e+00 3.1602100000000002e+00 -1.5801049999999994e+00
0.0000000000000000e+00 2.7368221412936213e+00 0.0000000000000000e+00
0.0000000000000000e+00 1.0000000000000000e+02 0.0000000000000000e+00
ITEM: ATOMS id type x y z
1 1 -0.269285 2.01109 1.78659
2 2 1.29703 1.07442 0.225225
3 3 1.31824 1.08013 3.35172
4 4 1.8483 0.741056 7.56272
5 5 3.4409 -0.195612 5.9711
6 6 3.42771 -0.178778 9.12256
ITEM: TIMESTEP
1400
ITEM: NUMBER OF ATOMS
6
ITEM: BOX BOUNDS xy xz yz pp pp pp
-1.5801049999999994e+00 3.1602100000000002e+00 -1.5801049999999994e+00
0.0000000000000000e+00 2.7368221412936213e+00 0.0000000000000000e+00
0.0000000000000000e+00 1.0000000000000000e+02 0.0000000000000000e+00
ITEM: ATOMS id type x y z
1 1 -0.00708887 1.71092 1.43728
2 2 1.56079 0.789471 -0.0882031
3 3 1.58047 0.795961 2.97376
4 4 1.58832 1.03632 7.89823
5 5 3.15589 0.100821 6.37691
6 6 3.18011 0.10856 9.44946
ITEM: TIMESTEP
1600
ITEM: NUMBER OF ATOMS
6
ITEM: BOX BOUNDS xy xz yz pp pp pp
-1.5801049999999994e+00 3.1602100000000002e+00 -1.5801049999999994e+00
0.0000000000000000e+00 2.7368221412936213e+00 0.0000000000000000e+00
0.0000000000000000e+00 1.0000000000000000e+02 0.0000000000000000e+00
ITEM: ATOMS id type x y z
1 1 -1.5317 2.07949 1.38222
2 2 0.0673969 1.21132 -0.224572
3 3 0.0293042 1.16443 2.95543
4 4 3.11304 0.638006 7.96645
5 5 -0.0524665 2.51583 6.39732
6 6 -0.0479118 2.46592 9.54437
ITEM: TIMESTEP
1800
ITEM: NUMBER OF ATOMS
6
ITEM: BOX BOUNDS xy xz yz pp pp pp
-1.5801049999999994e+00 3.1602100000000002e+00 -1.5801049999999994e+00
0.0000000000000000e+00 2.7368221412936213e+00 0.0000000000000000e+00
0.0000000000000000e+00 1.0000000000000000e+02 0.0000000000000000e+00
ITEM: ATOMS id type x y z
1 1 -0.475767 2.66134 1.43809
2 2 1.11897 1.74307 -0.0837931
3 3 1.09706 1.76403 2.97993
4 4 2.0544 0.0744942 7.90299
5 5 -1.10184 1.88592 6.3623
6 6 -1.10977 1.90958 9.43685
ITEM: TIMESTEP
2000
ITEM: NUMBER OF ATOMS
6
ITEM: BOX BOUNDS xy xz yz pp pp pp
-1.5801049999999994e+00 3.1602100000000002e+00 -1.5801049999999994e+00
0.0000000000000000e+00 2.7368221412936213e+00 0.0000000000000000e+00
0.0000000000000000e+00 1.0000000000000000e+02 0.0000000000000000e+00
ITEM: ATOMS id type x y z
1 1 1.72431 1.765 1.66265
2 2 0.123503 0.794817 0.0857022
3 3 0.163287 0.858983 3.23936
4 4 -0.146901 1.00085 7.68214
5 5 1.44237 0.00533738 6.07848
6 6 1.43912 0.0800236 9.28062
ITEM: TIMESTEP
2200
ITEM: NUMBER OF ATOMS
6
ITEM: BOX BOUNDS xy xz yz pp pp pp
-1.5801049999999994e+00 3.1602100000000002e+00 -1.5801049999999994e+00
0.0000000000000000e+00 2.7368221412936213e+00 0.0000000000000000e+00
0.0000000000000000e+00 1.0000000000000000e+02 0.0000000000000000e+00
ITEM: ATOMS id type x y z
1 1 -1.10111 2.37732 1.45245
3 3 0.490394 1.45758 2.97486
4 4 2.6835 0.358972 7.89097
5 5 -0.47943 2.18393 6.37328
6 6 -0.485001 2.18878 9.43661
2 2 0.467178 1.47094 99.9035
ITEM: TIMESTEP
2400
ITEM: NUMBER OF ATOMS
6
ITEM: BOX BOUNDS xy xz yz pp pp pp
-1.5801049999999994e+00 3.1602100000000002e+00 -1.5801049999999994e+00
0.0000000000000000e+00 2.7368221412936213e+00 0.0000000000000000e+00
0.0000000000000000e+00 1.0000000000000000e+02 0.0000000000000000e+00
ITEM: ATOMS id type x y z
1 1 -1.66208 1.8405 1.58381
3 3 -0.0943857 0.92391 3.1613
4 4 3.24306 0.876991 7.75927
5 5 0.0840013 2.75393 6.19978
6 6 0.0737308 2.71531 9.32813
2 2 -0.0659696 0.964353 100
ITEM: TIMESTEP
2600
ITEM: NUMBER OF ATOMS
6
ITEM: BOX BOUNDS xy xz yz pp pp pp
-1.5801049999999994e+00 3.1602100000000002e+00 -1.5801049999999994e+00
0.0000000000000000e+00 2.7368221412936213e+00 0.0000000000000000e+00
0.0000000000000000e+00 1.0000000000000000e+02 0.0000000000000000e+00
ITEM: ATOMS id type x y z
1 1 1.70316 0.504668 1.65314
3 3 -1.4602 2.37077 3.20039
4 4 -0.125962 2.24114 7.69246
5 5 1.44151 1.27318 6.11891
6 6 1.47566 1.33207 9.2344
2 2 -1.44826 2.29673 0.12803
ITEM: TIMESTEP
2800
ITEM: NUMBER OF ATOMS
6
ITEM: BOX BOUNDS xy xz yz pp pp pp
-1.5801049999999994e+00 3.1602100000000002e+00 -1.5801049999999994e+00
0.0000000000000000e+00 2.7368221412936213e+00 0.0000000000000000e+00
0.0000000000000000e+00 1.0000000000000000e+02 0.0000000000000000e+00
ITEM: ATOMS id type x y z
1 1 2.09658 0.317111 1.43534
3 3 -1.06335 2.14113 2.99908
4 4 -0.516112 2.43627 7.90571
5 5 1.0607 1.48471 6.33721
6 6 1.06915 1.51449 9.48798
2 2 -1.06758 2.10977 -0.128919
ITEM: TIMESTEP
3000
ITEM: NUMBER OF ATOMS
6
ITEM: BOX BOUNDS xy xz yz pp pp pp
-1.5801049999999994e+00 3.1602100000000002e+00 -1.5801049999999994e+00
0.0000000000000000e+00 2.7368221412936213e+00 0.0000000000000000e+00
0.0000000000000000e+00 1.0000000000000000e+02 0.0000000000000000e+00
ITEM: ATOMS id type x y z
1 1 3.30012 0.847986 1.33545
3 3 0.1415 2.65377 2.88032
4 4 -1.71837 1.87775 8.0128
5 5 -0.128034 1.0032 6.47235
6 6 -0.153309 0.973651 9.55914
2 2 0.134914 2.70221 -0.237992
ITEM: TIMESTEP
3200
ITEM: NUMBER OF ATOMS
6
ITEM: BOX BOUNDS xy xz yz pp pp pp
-1.5801049999999994e+00 3.1602100000000002e+00 -1.5801049999999994e+00
0.0000000000000000e+00 2.7368221412936213e+00 0.0000000000000000e+00
0.0000000000000000e+00 1.0000000000000000e+02 0.0000000000000000e+00
ITEM: ATOMS id type x y z
1 1 0.178659 1.75302 1.19304
3 3 1.76818 0.873149 2.7649
4 4 1.39938 0.969847 8.14516
5 5 1.40289 2.78917 6.58959
6 6 -1.76215 2.8179 9.71317
2 2 1.75746 0.861188 -0.363794
ITEM: TIMESTEP
3400
ITEM: NUMBER OF ATOMS
6
ITEM: BOX BOUNDS xy xz yz pp pp pp
-1.5801049999999994e+00 3.1602100000000002e+00 -1.5801049999999994e+00
0.0000000000000000e+00 2.7368221412936213e+00 0.0000000000000000e+00
0.0000000000000000e+00 1.0000000000000000e+02 0.0000000000000000e+00
ITEM: ATOMS id type x y z
1 1 2.17792 0.0729095 1.58748
3 3 -0.978132 1.91251 3.1306
4 4 -0.599192 2.67877 7.76009
5 5 0.965902 1.72166 6.19229
6 6 0.9992 1.75683 9.31717
2 2 -0.982851 1.86418 0.0358053
ITEM: TIMESTEP
3600
ITEM: NUMBER OF ATOMS
6
ITEM: BOX BOUNDS xy xz yz pp pp pp
-1.5801049999999994e+00 3.1602100000000002e+00 -1.5801049999999994e+00
0.0000000000000000e+00 2.7368221412936213e+00 0.0000000000000000e+00
0.0000000000000000e+00 1.0000000000000000e+02 0.0000000000000000e+00
ITEM: ATOMS id type x y z
1 1 0.705508 2.05095 1.68838
3 3 2.27545 1.13659 3.23962
4 4 0.877178 0.690197 7.65245
5 5 0.868931 2.51688 6.11642
6 6 0.880894 2.51689 9.19524
2 2 2.28742 1.11637 0.144743
ITEM: TIMESTEP
3800
ITEM: NUMBER OF ATOMS
6
ITEM: BOX BOUNDS xy xz yz pp pp pp
-1.5801049999999994e+00 3.1602100000000002e+00 -1.5801049999999994e+00
0.0000000000000000e+00 2.7368221412936213e+00 0.0000000000000000e+00
0.0000000000000000e+00 1.0000000000000000e+02 0.0000000000000000e+00
ITEM: ATOMS id type x y z
1 1 1.38931 1.35822 1.53278
3 3 -0.177491 0.440302 3.09134
4 4 0.190909 1.36041 7.81315
5 5 1.77004 0.495084 6.26079
6 6 1.76229 0.449497 9.38348
2 2 -0.19498 0.495565 99.9452
ITEM: TIMESTEP
4000
ITEM: NUMBER OF ATOMS
6
ITEM: BOX BOUNDS xy xz yz pp pp pp
-1.5801049999999994e+00 3.1602100000000002e+00 -1.5801049999999994e+00
0.0000000000000000e+00 2.7368221412936213e+00 0.0000000000000000e+00
0.0000000000000000e+00 1.0000000000000000e+02 0.0000000000000000e+00
ITEM: ATOMS id type x y z
1 1 1.03844 2.04002 1.46921
3 3 -0.530692 1.13057 3.01713
4 4 0.537999 0.69929 7.87348
5 5 0.553803 2.50565 6.31766
6 6 0.541482 2.5186 9.40686
2 2 -0.55361 1.1374 -0.0511834
ITEM: TIMESTEP
4200
ITEM: NUMBER OF ATOMS
6
ITEM: BOX BOUNDS xy xz yz pp pp pp
-1.5801049999999994e+00 3.1602100000000002e+00 -1.5801049999999994e+00
0.0000000000000000e+00 2.7368221412936213e+00 0.0000000000000000e+00
0.0000000000000000e+00 1.0000000000000000e+02 0.0000000000000000e+00
ITEM: ATOMS id type x y z
1 1 0.453617 0.474843 1.52323
3 3 0.452977 2.29876 3.08728
4 4 1.12887 2.28106 7.82375
5 5 -0.459527 1.32023 6.23702
6 6 -0.448139 1.37641 9.39378
2 2 0.447553 2.24716 99.9595
ITEM: TIMESTEP
4400
ITEM: NUMBER OF ATOMS
6
ITEM: BOX BOUNDS xy xz yz pp pp pp
-1.5801049999999994e+00 3.1602100000000002e+00 -1.5801049999999994e+00
0.0000000000000000e+00 2.7368221412936213e+00 0.0000000000000000e+00
0.0000000000000000e+00 1.0000000000000000e+02 0.0000000000000000e+00
ITEM: ATOMS id type x y z
1 1 1.49455 2.13465 1.68162
3 3 -0.0979584 1.21293 3.20543
4 4 0.0875132 0.596513 7.66175
5 5 1.6602 -0.281636 6.1514
6 6 1.66012 -0.311161 9.20747
2 2 -0.0680221 1.2228 100.124
ITEM: TIMESTEP
4600
ITEM: NUMBER OF ATOMS
6
ITEM: BOX BOUNDS xy xz yz pp pp pp
-1.5801049999999994e+00 3.1602100000000002e+00 -1.5801049999999994e+00
0.0000000000000000e+00 2.7368221412936213e+00 0.0000000000000000e+00
0.0000000000000000e+00 1.0000000000000000e+02 0.0000000000000000e+00
ITEM: ATOMS id type x y z
1 1 1.91276 2.63854 1.39228
3 3 0.329897 1.73299 2.97899
4 4 -0.336359 0.0802912 7.95076
5 5 1.25025 -0.78201 6.37226
6 6 1.26493 -0.853852 9.51576
2 2 0.326218 1.78271 99.8224
ITEM: TIMESTEP
4800
ITEM: NUMBER OF ATOMS
6
ITEM: BOX BOUNDS xy xz yz pp pp pp
-1.5801049999999994e+00 3.1602100000000002e+00 -1.5801049999999994e+00
0.0000000000000000e+00 2.7368221412936213e+00 0.0000000000000000e+00
0.0000000000000000e+00 1.0000000000000000e+02 0.0000000000000000e+00
ITEM: ATOMS id type x y z
1 1 -0.905726 2.46439 1.42874
3 3 0.678822 1.53817 2.96581
4 4 2.48412 0.283325 7.91892
5 5 -0.660356 2.0848 6.34915
6 6 -0.684676 2.10037 9.44779
2 2 0.671326 1.54371 -0.0871785
ITEM: TIMESTEP
5000
ITEM: NUMBER OF ATOMS
6
ITEM: BOX BOUNDS xy xz yz pp pp pp
-1.5801049999999994e+00 3.1602100000000002e+00 -1.5801049999999994e+00
0.0000000000000000e+00 2.7368221412936213e+00 0.0000000000000000e+00
0.0000000000000000e+00 1.0000000000000000e+02 0.0000000000000000e+00
ITEM: ATOMS id type x y z
1 1 -0.71757 2.75104 1.55386
3 3 0.87255 1.82981 3.12061
4 4 2.30074 -0.000910708 7.78524
5 5 -0.863048 1.78862 6.23696
6 6 -0.883975 1.85 9.37291
2 2 0.865305 1.79139 -0.0292693
ITEM: TIMESTEP
5200
ITEM: NUMBER OF ATOMS
6
ITEM: BOX BOUNDS xy xz yz pp pp pp
-1.5801049999999994e+00 3.1602100000000002e+00 -1.5801049999999994e+00
0.0000000000000000e+00 2.7368221412936213e+00 0.0000000000000000e+00
0.0000000000000000e+00 1.0000000000000000e+02 0.0000000000000000e+00
ITEM: ATOMS id type x y z
1 1 -0.877959 1.99466 1.68298
3 3 0.693545 1.11496 3.20863
4 4 2.45793 0.723742 7.67077
5 5 -0.707244 2.5581 6.13654
6 6 -0.674814 2.542 9.17706
2 2 0.688918 1.13973 0.135115
ITEM: TIMESTEP
5400
ITEM: NUMBER OF ATOMS
6
ITEM: BOX BOUNDS xy xz yz pp pp pp
-1.5801049999999994e+00 3.1602100000000002e+00 -1.5801049999999994e+00
0.0000000000000000e+00 2.7368221412936213e+00 0.0000000000000000e+00
0.0000000000000000e+00 1.0000000000000000e+02 0.0000000000000000e+00
ITEM: ATOMS id type x y z
1 1 0.703051 0.684193 1.75444
3 3 0.694784 2.498 3.3327
4 4 0.87449 2.04306 7.58028
5 5 -0.710041 1.17783 6.02171
6 6 -0.69355 1.11182 9.16134
2 2 0.716478 2.54064 100.199
ITEM: TIMESTEP
5600
ITEM: NUMBER OF ATOMS
6
ITEM: BOX BOUNDS xy xz yz pp pp pp
-1.5801049999999994e+00 3.1602100000000002e+00 -1.5801049999999994e+00
0.0000000000000000e+00 2.7368221412936213e+00 0.0000000000000000e+00
0.0000000000000000e+00 1.0000000000000000e+02 0.0000000000000000e+00
ITEM: ATOMS id type x y z
1 1 -0.844868 2.52432 1.81324
3 3 0.747449 1.59459 3.31277
4 4 2.42442 0.22973 7.53821
5 5 -0.745735 2.03664 6.01177
6 6 -0.747033 2.05461 9.07374
2 2 0.74697 1.56226 0.265942
ITEM: TIMESTEP
5800
ITEM: NUMBER OF ATOMS
6
ITEM: BOX BOUNDS xy xz yz pp pp pp
-1.5801049999999994e+00 3.1602100000000002e+00 -1.5801049999999994e+00
0.0000000000000000e+00 2.7368221412936213e+00 0.0000000000000000e+00
0.0000000000000000e+00 1.0000000000000000e+02 0.0000000000000000e+00
ITEM: ATOMS id type x y z
1 1 0.0675195 2.41802 1.24213
3 3 1.64604 1.51622 2.848
4 4 1.51457 0.327499 8.08852
5 5 1.53416 2.11894 6.51903
6 6 1.50121 2.15951 9.67951
2 2 1.63306 1.47895 99.68
ITEM: TIMESTEP
6000
ITEM: NUMBER OF ATOMS
6
ITEM: BOX BOUNDS xy xz yz pp pp pp
-1.5801049999999994e+00 3.1602100000000002e+00 -1.5801049999999994e+00
0.0000000000000000e+00 2.7368221412936213e+00 0.0000000000000000e+00
0.0000000000000000e+00 1.0000000000000000e+02 0.0000000000000000e+00
ITEM: ATOMS id type x y z
1 1 1.95205 1.71228 1.24533
3 3 0.372211 0.809895 2.78325
4 4 -0.371067 1.00336 8.10942
5 5 -0.362319 2.87065 6.55935
6 6 -0.364308 2.8218 9.61049
2 2 0.351785 0.860679 99.7013
ITEM: TIMESTEP
6200
ITEM: NUMBER OF ATOMS
6
ITEM: BOX BOUNDS xy xz yz pp pp pp
-1.5801049999999994e+00 3.1602100000000002e+00 -1.5801049999999994e+00
0.0000000000000000e+00 2.7368221412936213e+00 0.0000000000000000e+00
0.0000000000000000e+00 1.0000000000000000e+02 0.0000000000000000e+00
ITEM: ATOMS id type x y z
1 1 1.01638 2.06624 1.54244
3 3 -0.554588 1.15077 3.10988
4 4 0.561908 0.66826 7.79423
5 5 0.544561 2.50275 6.23733
6 6 0.5684 2.51109 9.39202
2 2 -0.552946 1.14198 99.9692
ITEM: TIMESTEP
6400
ITEM: NUMBER OF ATOMS
6
ITEM: BOX BOUNDS xy xz yz pp pp pp
-1.5801049999999994e+00 3.1602100000000002e+00 -1.5801049999999994e+00
0.0000000000000000e+00 2.7368221412936213e+00 0.0000000000000000e+00
0.0000000000000000e+00 1.0000000000000000e+02 0.0000000000000000e+00
ITEM: ATOMS id type x y z
1 1 1.75404 1.66778 1.62618
3 3 0.155502 0.764149 3.1459
4 4 -0.173357 1.08845 7.72179
5 5 -0.172459 2.86033 6.1781
2 2 0.18639 0.714949 0.0879691
6 6 -0.171165 2.90214 9.26268
ITEM: TIMESTEP
6600
ITEM: NUMBER OF ATOMS
6
ITEM: BOX BOUNDS xy xz yz pp pp pp
-1.5801049999999994e+00 3.1602100000000002e+00 -1.5801049999999994e+00
0.0000000000000000e+00 2.7368221412936213e+00 0.0000000000000000e+00
0.0000000000000000e+00 1.0000000000000000e+02 0.0000000000000000e+00
ITEM: ATOMS id type x y z
1 1 -0.83306 2.44835 1.71276
3 3 0.741802 1.54016 3.31592
4 4 2.41445 0.285559 7.6283
5 5 -0.738394 2.11264 6.04734
2 2 0.733112 1.56227 0.152757
6 6 -0.740379 2.0933 9.1793
ITEM: TIMESTEP
6800
ITEM: NUMBER OF ATOMS
6
ITEM: BOX BOUNDS xy xz yz pp pp pp
-1.5801049999999994e+00 3.1602100000000002e+00 -1.5801049999999994e+00
0.0000000000000000e+00 2.7368221412936213e+00 0.0000000000000000e+00
0.0000000000000000e+00 1.0000000000000000e+02 0.0000000000000000e+00
ITEM: ATOMS id type x y z
1 1 0.0764508 2.10972 1.62846
3 3 1.67851 1.18015 3.16058
4 4 1.50336 0.610796 7.71619
5 5 -0.081146 -0.24801 6.19343
2 2 1.64907 1.23857 100.065
6 6 -0.0853249 -0.295896 9.26593
ITEM: TIMESTEP
7000
ITEM: NUMBER OF ATOMS
6
ITEM: BOX BOUNDS xy xz yz pp pp pp
-1.5801049999999994e+00 3.1602100000000002e+00 -1.5801049999999994e+00
0.0000000000000000e+00 2.7368221412936213e+00 0.0000000000000000e+00
0.0000000000000000e+00 1.0000000000000000e+02 0.0000000000000000e+00
ITEM: ATOMS id type x y z
1 1 0.194348 1.07538 1.70337
3 3 0.19102 2.89231 3.22915
4 4 1.38433 1.67039 7.64371
5 5 -0.187304 0.744239 6.08674
2 2 0.198907 2.87517 0.130993
6 6 -0.198352 0.761162 9.23041
ITEM: TIMESTEP
7200
ITEM: NUMBER OF ATOMS
6
ITEM: BOX BOUNDS xy xz yz pp pp pp
-1.5801049999999994e+00 3.1602100000000002e+00 -1.5801049999999994e+00
0.0000000000000000e+00 2.7368221412936213e+00 0.0000000000000000e+00
0.0000000000000000e+00 1.0000000000000000e+02 0.0000000000000000e+00
ITEM: ATOMS id type x y z
1 1 1.25096 1.8934 1.73814
3 3 -0.35439 0.999941 3.31052
4 4 0.330073 0.858499 7.60095
5 5 0.333231 2.62842 6.04843
2 2 -0.325148 0.95024 100.213
6 6 0.343537 2.67593 9.12893
ITEM: TIMESTEP
7400
ITEM: NUMBER OF ATOMS
6
ITEM: BOX BOUNDS xy xz yz pp pp pp
-1.5801049999999994e+00 3.1602100000000002e+00 -1.5801049999999994e+00
0.0000000000000000e+00 2.7368221412936213e+00 0.0000000000000000e+00
0.0000000000000000e+00 1.0000000000000000e+02 0.0000000000000000e+00
ITEM: ATOMS id type x y z
1 1 0.904427 0.861434 1.57294
3 3 0.911663 2.67812 3.13716
4 4 0.676117 1.86174 7.77879
5 5 2.23911 0.999147 6.21041
2 2 0.911542 2.71322 -0.0024197
6 6 2.25679 0.950025 9.31822
ITEM: TIMESTEP
7600
ITEM: NUMBER OF ATOMS
6
ITEM: BOX BOUNDS xy xz yz pp pp pp
-1.5801049999999994e+00 3.1602100000000002e+00 -1.5801049999999994e+00
0.0000000000000000e+00 2.7368221412936213e+00 0.0000000000000000e+00
0.0000000000000000e+00 1.0000000000000000e+02 0.0000000000000000e+00
ITEM: ATOMS id type x y z
1 1 0.21844 1.01415 1.5697
3 3 0.233109 2.82338 3.09824
4 4 1.3612 1.7136 7.7675
5 5 2.94335 0.838113 6.23707
2 2 0.210216 2.86012 0.0121852
6 6 2.93513 0.805199 9.35938
ITEM: TIMESTEP
7800
ITEM: NUMBER OF ATOMS
6
ITEM: BOX BOUNDS xy xz yz pp pp pp
-1.5801049999999994e+00 3.1602100000000002e+00 -1.5801049999999994e+00
0.0000000000000000e+00 2.7368221412936213e+00 0.0000000000000000e+00
0.0000000000000000e+00 1.0000000000000000e+02 0.0000000000000000e+00
ITEM: ATOMS id type x y z
1 1 1.82708 1.95577 1.56917
3 3 0.237774 1.05013 3.11398
4 4 -0.247871 0.797129 7.78425
5 5 -0.223 2.57874 6.20513
2 2 0.233779 1.01277 0.0135656
6 6 -0.245879 2.60989 9.32565
ITEM: TIMESTEP
8000
ITEM: NUMBER OF ATOMS
6
ITEM: BOX BOUNDS xy xz yz pp pp pp
-1.5801049999999994e+00 3.1602100000000002e+00 -1.5801049999999994e+00
0.0000000000000000e+00 2.7368221412936213e+00 0.0000000000000000e+00
0.0000000000000000e+00 1.0000000000000000e+02 0.0000000000000000e+00
ITEM: ATOMS id type x y z
1 1 -0.435176 1.95329 1.54925
3 3 1.14237 1.05021 3.14581
4 4 2.01478 0.787575 7.78675
5 5 -1.1494 2.58898 6.22771
2 2 1.15736 1.03308 0.00345326
6 6 -1.14884 2.61529 9.3335
ITEM: TIMESTEP
8200
ITEM: NUMBER OF ATOMS
6
ITEM: BOX BOUNDS xy xz yz pp pp pp
-1.5801049999999994e+00 3.1602100000000002e+00 -1.5801049999999994e+00
0.0000000000000000e+00 2.7368221412936213e+00 0.0000000000000000e+00
0.0000000000000000e+00 1.0000000000000000e+02 0.0000000000000000e+00
ITEM: ATOMS id type x y z
1 1 0.684971 3.12235 1.30405
3 3 -0.890955 2.19868 2.82862
4 4 0.895521 -0.405366 8.04769
5 5 0.871824 1.47538 6.50734
2 2 -0.889159 2.24961 -0.27251
6 6 0.907132 1.43534 9.59992
ITEM: TIMESTEP
8400
ITEM: NUMBER OF ATOMS
6
ITEM: BOX BOUNDS xy xz yz pp pp pp
-1.5801049999999994e+00 3.1602100000000002e+00 -1.5801049999999994e+00
0.0000000000000000e+00 2.7368221412936213e+00 0.0000000000000000e+00
0.0000000000000000e+00 1.0000000000000000e+02 0.0000000000000000e+00
ITEM: ATOMS id type x y z
1 1 0.410289 0.318323 1.17107
3 3 0.408036 2.14992 2.72164
4 4 1.17136 2.41956 8.16353
5 5 2.75245 1.49358 6.59773
2 2 0.391477 2.15208 -0.357765
6 6 2.76382 1.50091 9.75304
ITEM: TIMESTEP
8600
ITEM: NUMBER OF ATOMS
6
ITEM: BOX BOUNDS xy xz yz pp pp pp
-1.5801049999999994e+00 3.1602100000000002e+00 -1.5801049999999994e+00
0.0000000000000000e+00 2.7368221412936213e+00 0.0000000000000000e+00
0.0000000000000000e+00 1.0000000000000000e+02 0.0000000000000000e+00
ITEM: ATOMS id type x y z
1 1 2.06605 0.819803 1.52655
3 3 0.48507 -0.0898801 3.09608
4 4 -0.48476 1.93417 7.82115
5 5 1.11133 0.976374 6.2408
2 2 0.47845 -0.12531 -0.0174659
6 6 1.0818 1.01348 9.35605
ITEM: TIMESTEP
8800
ITEM: NUMBER OF ATOMS
6
ITEM: BOX BOUNDS xy xz yz pp pp pp
-1.5801049999999994e+00 3.1602100000000002e+00 -1.5801049999999994e+00
0.0000000000000000e+00 2.7368221412936213e+00 0.0000000000000000e+00
0.0000000000000000e+00 1.0000000000000000e+02 0.0000000000000000e+00
ITEM: ATOMS id type x y z
1 1 2.52215 0.230913 1.50123
3 3 -0.636237 2.06055 3.0625
4 4 -0.943795 2.5007 7.83994
5 5 0.646335 1.59955 6.31197
2 2 -0.625935 2.04417 -0.0815307
6 6 0.621062 1.61097 9.40206
ITEM: TIMESTEP
9000
ITEM: NUMBER OF ATOMS
6
ITEM: BOX BOUNDS xy xz yz pp pp pp
-1.5801049999999994e+00 3.1602100000000002e+00 -1.5801049999999994e+00
0.0000000000000000e+00 2.7368221412936213e+00 0.0000000000000000e+00
0.0000000000000000e+00 1.0000000000000000e+02 0.0000000000000000e+00
ITEM: ATOMS id type x y z
1 1 -0.20691 1.9158 1.65571
3 3 1.38196 1.00019 3.18155
4 4 1.78657 0.802231 7.68832
5 5 0.183326 -0.0614569 6.13942
2 2 1.36688 1.04963 100.103
6 6 0.229364 -0.106103 9.26246
ITEM: TIMESTEP
9200
ITEM: NUMBER OF ATOMS
6
ITEM: BOX BOUNDS xy xz yz pp pp pp
-1.5801049999999994e+00 3.1602100000000002e+00 -1.5801049999999994e+00
0.0000000000000000e+00 2.7368221412936213e+00 0.0000000000000000e+00
0.0000000000000000e+00 1.0000000000000000e+02 0.0000000000000000e+00
ITEM: ATOMS id type x y z
1 1 0.045497 1.76647 1.74662
3 3 1.60891 0.844131 3.30834
4 4 1.53678 0.979188 7.5988
5 5 -0.0432203 0.0567989 6.02327
2 2 1.63418 0.856625 100.207
6 6 -0.0461576 0.0420049 9.14357
ITEM: TIMESTEP
9400
ITEM: NUMBER OF ATOMS
6
ITEM: BOX BOUNDS xy xz yz pp pp pp
-1.5801049999999994e+00 3.1602100000000002e+00 -1.5801049999999994e+00
0.0000000000000000e+00 2.7368221412936213e+00 0.0000000000000000e+00
0.0000000000000000e+00 1.0000000000000000e+02 0.0000000000000000e+00
ITEM: ATOMS id type x y z
1 1 1.88636 1.69109 1.72743
3 3 0.295225 0.790418 3.28717
4 4 -0.309283 1.05863 7.61472
5 5 -0.280216 2.8441 6.0891
2 2 0.325239 0.736606 100.164
6 6 -0.331182 2.88993 9.15228
ITEM: TIMESTEP
9600
ITEM: NUMBER OF ATOMS
6
ITEM: BOX BOUNDS xy xz yz pp pp pp
-1.5801049999999994e+00 3.1602100000000002e+00 -1.5801049999999994e+00
0.0000000000000000e+00 2.7368221412936213e+00 0.0000000000000000e+00
0.0000000000000000e+00 1.0000000000000000e+02 0.0000000000000000e+00
ITEM: ATOMS id type x y z
1 1 1.15114 2.05188 1.76631
3 3 2.74696 1.14876 3.28845
4 4 0.427755 0.67184 7.58026
5 5 0.427773 2.52038 6.03996
2 2 2.71407 1.15657 0.192353
6 6 0.435225 2.51316 9.15809
ITEM: TIMESTEP
9800
ITEM: NUMBER OF ATOMS
6
ITEM: BOX BOUNDS xy xz yz pp pp pp
-1.5801049999999994e+00 3.1602100000000002e+00 -1.5801049999999994e+00
0.0000000000000000e+00 2.7368221412936213e+00 0.0000000000000000e+00
0.0000000000000000e+00 1.0000000000000000e+02 0.0000000000000000e+00
ITEM: ATOMS id type x y z
1 1 1.57161 1.62682 1.69504
3 3 -0.0140628 0.715778 3.23801
4 4 0.011403 1.10704 7.64719
5 5 0.00341127 2.93794 6.09519
2 2 -0.0124484 0.737277 0.160377
6 6 0.0144078 2.91752 9.19825
ITEM: TIMESTEP
10000
ITEM: NUMBER OF ATOMS
6
ITEM: BOX BOUNDS xy xz yz pp pp pp
-1.5801049999999994e+00 3.1602100000000002e+00 -1.5801049999999994e+00
0.0000000000000000e+00 2.7368221412936213e+00 0.0000000000000000e+00
0.0000000000000000e+00 1.0000000000000000e+02 0.0000000000000000e+00
ITEM: ATOMS id type x y z
1 1 1.09863 2.7317 1.57808
3 3 -0.501352 1.80391 3.17118
4 4 0.480634 0.0223974 7.7678
5 5 0.486036 1.8162 6.19726
2 2 -0.454873 1.79354 100.012
6 6 0.472706 1.8343 9.30084
ITEM: TIMESTEP
10200
ITEM: NUMBER OF ATOMS
6
ITEM: BOX BOUNDS xy xz yz pp pp pp
-1.5801049999999994e+00 3.1602100000000002e+00 -1.5801049999999994e+00
0.0000000000000000e+00 2.7368221412936213e+00 0.0000000000000000e+00
0.0000000000000000e+00 1.0000000000000000e+02 0.0000000000000000e+00
ITEM: ATOMS id type x y z
1 1 -0.129712 1.07804 1.46309
3 3 1.46313 0.181687 2.99201
4 4 1.70421 1.65529 7.88436
5 5 0.12398 0.742714 6.33773
2 2 1.45724 0.132432 99.9088
6 6 0.132622 0.779628 9.43761
ITEM: TIMESTEP
10400
ITEM: NUMBER OF ATOMS
6
ITEM: BOX BOUNDS xy xz yz pp pp pp
-1.5801049999999994e+00 3.1602100000000002e+00 -1.5801049999999994e+00
0.0000000000000000e+00 2.7368221412936213e+00 0.0000000000000000e+00
0.0000000000000000e+00 1.0000000000000000e+02 0.0000000000000000e+00
ITEM: ATOMS id type x y z
1 1 1.40745 1.12348 1.60779
3 3 -0.162373 0.233026 3.15253
4 4 0.176113 1.59707 7.7331
5 5 1.75359 0.704269 6.17143
2 2 -0.199528 0.233099 100.041
6 6 1.75817 0.704314 9.33058
ITEM: TIMESTEP
10600
ITEM: NUMBER OF ATOMS
6
ITEM: BOX BOUNDS xy xz yz pp pp pp
-1.5801049999999994e+00 3.1602100000000002e+00 -1.5801049999999994e+00
0.0000000000000000e+00 2.7368221412936213e+00 0.0000000000000000e+00
0.0000000000000000e+00 1.0000000000000000e+02 0.0000000000000000e+00
ITEM: ATOMS id type x y z
1 1 0.669849 0.468032 1.73179
3 3 0.665914 2.26852 3.28781
4 4 0.912684 2.27847 7.6156
5 5 2.49198 1.3596 6.06505
2 2 0.679342 2.31029 100.197
6 6 2.47592 1.33227 9.12604
ITEM: TIMESTEP
10800
ITEM: NUMBER OF ATOMS
6
ITEM: BOX BOUNDS xy xz yz pp pp pp
-1.5801049999999994e+00 3.1602100000000002e+00 -1.5801049999999994e+00
0.0000000000000000e+00 2.7368221412936213e+00 0.0000000000000000e+00
0.0000000000000000e+00 1.0000000000000000e+02 0.0000000000000000e+00
ITEM: ATOMS id type x y z
1 1 2.44979 -0.318036 1.332
3 3 -0.711849 1.47916 2.92463
4 4 -0.876358 3.07291 8.00679
5 5 0.704928 2.14262 6.44761
2 2 -0.688042 1.46432 99.7434
6 6 0.714919 2.15952 9.58646
ITEM: TIMESTEP
11000
ITEM: NUMBER OF ATOMS
6
ITEM: BOX BOUNDS xy xz yz pp pp pp
-1.5801049999999994e+00 3.1602100000000002e+00 -1.5801049999999994e+00
0.0000000000000000e+00 2.7368221412936213e+00 0.0000000000000000e+00
0.0000000000000000e+00 1.0000000000000000e+02 0.0000000000000000e+00
ITEM: ATOMS id type x y z
1 1 0.136931 1.81438 1.42262
3 3 -1.44448 0.932584 2.94494
4 4 1.44304 0.909541 7.92432
5 5 1.43864 2.74283 6.37544
2 2 -1.44653 0.90198 -0.113777
6 6 1.45277 2.76088 9.47111
ITEM: TIMESTEP
11200
ITEM: NUMBER OF ATOMS
6
ITEM: BOX BOUNDS xy xz yz pp pp pp
-1.5801049999999994e+00 3.1602100000000002e+00 -1.5801049999999994e+00
0.0000000000000000e+00 2.7368221412936213e+00 0.0000000000000000e+00
0.0000000000000000e+00 1.0000000000000000e+02 0.0000000000000000e+00
ITEM: ATOMS id type x y z
1 1 -0.851064 2.20763 1.50075
3 3 0.718676 1.31049 3.09369
4 4 2.43765 0.521553 7.83769
5 5 -0.715126 2.36 6.25874
6 6 -0.741956 2.32007 9.40886
2 2 0.719003 1.33193 99.9419
ITEM: TIMESTEP
11400
ITEM: NUMBER OF ATOMS
6
ITEM: BOX BOUNDS xy xz yz pp pp pp
-1.5801049999999994e+00 3.1602100000000002e+00 -1.5801049999999994e+00
0.0000000000000000e+00 2.7368221412936213e+00 0.0000000000000000e+00
0.0000000000000000e+00 1.0000000000000000e+02 0.0000000000000000e+00
ITEM: ATOMS id type x y z
1 1 1.10709 2.28232 1.81718
3 3 -0.476024 1.30963 3.35194
4 4 0.470751 0.474611 7.53211
5 5 0.493759 2.30086 6.00852
6 6 0.458297 2.26689 9.04022
2 2 -0.46926 1.36209 100.27
ITEM: TIMESTEP
11600
ITEM: NUMBER OF ATOMS
6
ITEM: BOX BOUNDS xy xz yz pp pp pp
-1.5801049999999994e+00 3.1602100000000002e+00 -1.5801049999999994e+00
0.0000000000000000e+00 2.7368221412936213e+00 0.0000000000000000e+00
0.0000000000000000e+00 1.0000000000000000e+02 0.0000000000000000e+00
ITEM: ATOMS id type x y z
1 1 -0.345346 2.30557 1.60088
3 3 1.24965 1.39251 3.15112
4 4 1.92063 0.43203 7.73839
5 5 -1.2484 2.24842 6.18893
6 6 -1.22797 2.27948 9.33001
2 2 1.24114 1.37691 0.0306107
ITEM: TIMESTEP
11800
ITEM: NUMBER OF ATOMS
6
ITEM: BOX BOUNDS xy xz yz pp pp pp
-1.5801049999999994e+00 3.1602100000000002e+00 -1.5801049999999994e+00
0.0000000000000000e+00 2.7368221412936213e+00 0.0000000000000000e+00
0.0000000000000000e+00 1.0000000000000000e+02 0.0000000000000000e+00
ITEM: ATOMS id type x y z
1 1 1.58481 1.61287 1.43907
3 3 -0.0184391 0.725472 2.97666
4 4 -0.000343623 1.10775 7.90799
5 5 -0.00246315 2.95155 6.34742
6 6 -0.00370732 2.93434 9.45423
2 2 0.0115648 0.736785 99.8991
ITEM: TIMESTEP
12000
ITEM: NUMBER OF ATOMS
6
ITEM: BOX BOUNDS xy xz yz pp pp pp
-1.5801049999999994e+00 3.1602100000000002e+00 -1.5801049999999994e+00
0.0000000000000000e+00 2.7368221412936213e+00 0.0000000000000000e+00
0.0000000000000000e+00 1.0000000000000000e+02 0.0000000000000000e+00
ITEM: ATOMS id type x y z
1 1 1.30557 3.09729 1.21822
3 3 -0.301501 2.16645 2.82021
4 4 0.279509 -0.354121 8.12538
5 5 0.292638 1.48226 6.55164
6 6 0.269877 1.43651 9.64958
2 2 -0.275915 2.19542 99.6663
ITEM: TIMESTEP
12200
ITEM: NUMBER OF ATOMS
6
ITEM: BOX BOUNDS xy xz yz pp pp pp