CRYSTAL
PRIMVEC
 34.89360005052724 -5.85559715758832 0.00000000000000
 -25.07089042611506 27.13167544526883 0.00000000000000
 0.00000000000000 0.00000000000000 19.57178440000000
PRIMCOORD
 534 1
 16   -20.36262931386302    22.60229695044692    -1.58592600000000
 16   -20.36262931386302    22.60229695044692     1.58592600000000
 42   -23.49350868866304    26.21645238003551     0.00000000000000
 16   -21.91611978311376    25.30176464172269    -1.58592600000000
 16   -21.91611978311376    25.30176464172269     1.58592600000000
 42   -14.10088490045753    15.37291543742871     0.00000000000000
 16   -12.52349599490825    14.45822769911590    -1.58592600000000
 16   -12.52349599490825    14.45822769911590     1.58592600000000
 42   -15.65437536970827    18.07238312870449     0.00000000000000
 16   -14.07698646415898    17.15769539039168    -1.58592600000000
 16   -14.07698646415898    17.15769539039168     1.58592600000000
 42   -17.20786583895900    20.77185081998028     0.00000000000000
 16   -15.63047693340971    19.85716308166746    -1.58592600000000
 16   -15.63047693340971    19.85716308166746     1.58592600000000
 42   -18.76135630820973    23.47131851125606     0.00000000000000
 16   -17.18396740266044    22.55663077294324    -1.58592600000000
 16   -17.18396740266044    22.55663077294324     1.58592600000000
 42   -20.31484677746046    26.17078620253184     0.00000000000000
 16   -18.73745787191118    25.25609846421902    -1.58592600000000
 16   -18.73745787191118    25.25609846421902     1.58592600000000
 16    -3.13087220670275     3.61469075650910    -1.58592600000000
 16    -3.13087220670275     3.61469075650910     1.58592600000000
 42    -6.26175158150276     7.22884618609770     0.00000000000000
 16    -4.68436267595348     6.31415844778488    -1.58592600000000
 16    -4.68436267595348     6.31415844778488     1.58592600000000
 42    -7.81524205075349     9.92831387737348     0.00000000000000
 16    -6.23785314520421     9.01362613906066    -1.58592600000000
 16    -6.23785314520421     9.01362613906066     1.58592600000000
 42    -9.36873252000423    12.62778156864926     0.00000000000000
 16    -7.79134361445494    11.71309383033644    -1.58592600000000
 16    -7.79134361445494    11.71309383033644     1.58592600000000
 42   -10.92222298925496    15.32724925992504     0.00000000000000
 16    -9.34483408370567    14.41256152161222    -1.58592600000000
 16    -9.34483408370567    14.41256152161222     1.58592600000000
 42   -12.47571345850569    18.02671695120082     0.00000000000000
 16   -10.89832455295641    17.11202921288800    -1.58592600000000
 16   -10.89832455295641    17.11202921288800     1.58592600000000
 42   -14.02920392775642    20.72618464247660     0.00000000000000
 16   -12.45181502220714    19.81149690416378    -1.58592600000000
 16   -12.45181502220714    19.81149690416378     1.58592600000000
 42   -15.58269439700715    23.42565233375238     0.00000000000000
 16   -14.00530549145787    22.51096459543956    -1.58592600000000
 16   -14.00530549145787    22.51096459543956     1.58592600000000
 16   -15.55879596070860    25.21043228671535    -1.58592600000000
 16   -15.55879596070860    25.21043228671535     1.58592600000000
 42     0.02389126820128     1.78424462604246     0.00000000000000
 16     1.60128017375056     0.86955688772964    -1.58592600000000
 16     1.60128017375056     0.86955688772964     1.58592600000000
 42    -1.52959920104945     4.48371231731824     0.00000000000000
 16     0.04778970449983     3.56902457900542    -1.58592600000000
 16     0.04778970449983     3.56902457900542     1.58592600000000
 42    -3.08308967030018     7.18318000859402     0.00000000000000
 16    -1.50570076475090     6.26849227028121    -1.58592600000000
 16    -1.50570076475090     6.26849227028121     1.58592600000000
 42    -4.63658013955092     9.88264769986980     0.00000000000000
 16    -3.05919123400163     8.96795996155699    -1.58592600000000
 16    -3.05919123400163     8.96795996155699     1.58592600000000
 42    -6.19007060880165    12.58211539114558     0.00000000000000
 16    -4.61268170325236    11.66742765283276    -1.58592600000000
 16    -4.61268170325236    11.66742765283276     1.58592600000000
 42    -7.74356107805238    15.28158308242136     0.00000000000000
 16    -6.16617217250309    14.36689534410855    -1.58592600000000
 16    -6.16617217250309    14.36689534410855     1.58592600000000
 42    -9.29705154730311    17.98105077369714     0.00000000000000
 16    -7.71966264175383    17.06636303538432    -1.58592600000000
 16    -7.71966264175383    17.06636303538432     1.58592600000000
 42   -10.85054201655384    20.68051846497292     0.00000000000000
 16    -9.27315311100456    19.76583072666011    -1.58592600000000
 16    -9.27315311100456    19.76583072666011     1.58592600000000
 42   -12.40403248580458    23.37998615624871     0.00000000000000
 16   -10.82664358025529    22.46529841793589    -1.58592600000000
 16   -10.82664358025529    22.46529841793589     1.58592600000000
 42     3.20255317940386     1.73857844853878     0.00000000000000
 16     4.77994208495314     0.82389071022597    -1.58592600000000
 16     4.77994208495314     0.82389071022597     1.58592600000000
 42     1.64906271015313     4.43804613981457     0.00000000000000
 16     3.22645161570241     3.52335840150175    -1.58592600000000
 16     3.22645161570241     3.52335840150175     1.58592600000000
 42     0.09557224090239     7.13751383109035     0.00000000000000
 16     1.67296114645168     6.22282609277753    -1.58592600000000
 16     1.67296114645168     6.22282609277753     1.58592600000000
 42    -1.45791822834834     9.83698152236613     0.00000000000000
 16     0.11947067720095     8.92229378405331    -1.58592600000000
 16     0.11947067720095     8.92229378405331     1.58592600000000
 42    -3.01140869759907    12.53644921364191     0.00000000000000
 16    -1.43401979204979    11.62176147532909    -1.58592600000000
 16    -1.43401979204979    11.62176147532909     1.58592600000000
 42    -4.56489916684980    15.23591690491769     0.00000000000000
 16    -2.98751026130052    14.32122916660487    -1.58592600000000
 16    -2.98751026130052    14.32122916660487     1.58592600000000
 42    -6.11838963610053    17.93538459619347     0.00000000000000
 16    -4.54100073055125    17.02069685788065    -1.58592600000000
 16    -4.54100073055125    17.02069685788065     1.58592600000000
 42    -7.67188010535127    20.63485228746925     0.00000000000000
 16    -6.09449119980198    19.72016454915643    -1.58592600000000
 16    -6.09449119980198    19.72016454915643     1.58592600000000
 42    -9.22537057460200    23.33431997874503     0.00000000000000
 16    -7.64798166905271    22.41963224043221    -1.58592600000000
 16    -7.64798166905271    22.41963224043221     1.58592600000000
 42     7.93470555985717    -1.00655542024067     0.00000000000000
 42     6.38121509060643     1.69291227103511     0.00000000000000
 16     7.95860399615572     0.77822453272229    -1.58592600000000
 16     7.95860399615572     0.77822453272229     1.58592600000000
 42     4.82772462135570     4.39237996231089     0.00000000000000
 16     6.40511352690499     3.47769222399807    -1.58592600000000
 16     6.40511352690499     3.47769222399807     1.58592600000000
 42     3.27423415210497     7.09184765358667     0.00000000000000
 16     4.85162305765426     6.17715991527385    -1.58592600000000
 16     4.85162305765426     6.17715991527385     1.58592600000000
 42     1.72074368285424     9.79131534486245     0.00000000000000
 16     3.29813258840352     8.87662760654963    -1.58592600000000
 16     3.29813258840352     8.87662760654963     1.58592600000000
 42     0.16725321360351    12.49078303613823     0.00000000000000
 16     1.74464211915279    11.57609529782541    -1.58592600000000
 16     1.74464211915279    11.57609529782541     1.58592600000000
 42    -1.38623725564722    15.19025072741401     0.00000000000000
 16     0.19115164990206    14.27556298910120    -1.58592600000000
 16     0.19115164990206    14.27556298910120     1.58592600000000
 42    -2.93972772489796    17.88971841868979     0.00000000000000
 16    -1.36233881934867    16.97503068037697    -1.58592600000000
 16    -1.36233881934867    16.97503068037697     1.58592600000000
 42    -4.49321819414869    20.58918610996557     0.00000000000000
 16    -2.91582928859941    19.67449837165276    -1.58592600000000
 16    -2.91582928859941    19.67449837165276     1.58592600000000
 42    -6.04670866339942    23.28865380124136     0.00000000000000
 16    -4.46931975785014    22.37396606292854    -1.58592600000000
 16    -4.46931975785014    22.37396606292854     1.58592600000000
 42    11.11336747105975    -1.05222159774435     0.00000000000000
 16    12.69075637660903    -1.96690933605716    -1.58592600000000
 16    12.69075637660903    -1.96690933605716     1.58592600000000
 42     9.55987700180902     1.64724609353143     0.00000000000000
 16    11.13726590735830     0.73255835521862    -1.58592600000000
 16    11.13726590735830     0.73255835521862     1.58592600000000
 42     8.00638653255828     4.34671378480721     0.00000000000000
 16     9.58377543810757     3.43202604649440    -1.58592600000000
 16     9.58377543810757     3.43202604649440     1.58592600000000
 42     6.45289606330755     7.04618147608300     0.00000000000000
 16     8.03028496885683     6.13149373777018    -1.58592600000000
 16     8.03028496885683     6.13149373777018     1.58592600000000
 42     4.89940559405682     9.74564916735878     0.00000000000000
 16     6.47679449960610     8.83096142904596    -1.58592600000000
 16     6.47679449960610     8.83096142904596     1.58592600000000
 42     3.34591512480609    12.44511685863455     0.00000000000000
 16     4.92330403035537    11.53042912032174    -1.58592600000000
 16     4.92330403035537    11.53042912032174     1.58592600000000
 42     1.79242465555536    15.14458454991034     0.00000000000000
 16     3.36981356110464    14.22989681159752    -1.58592600000000
 16     3.36981356110464    14.22989681159752     1.58592600000000
 42     0.23893418630462    17.84405224118612     0.00000000000000
 16     1.81632309185391    16.92936450287330    -1.58592600000000
 16     1.81632309185391    16.92936450287330     1.58592600000000
 42    -1.31455628294611    20.54351993246190     0.00000000000000
 16     0.26283262260318    19.62883219414908    -1.58592600000000
 16     0.26283262260318    19.62883219414908     1.58592600000000
 42    -2.86804675219684    23.24298762373768     0.00000000000000
 16    -1.29065784664756    22.32829988542486    -1.58592600000000
 16    -1.29065784664756    22.32829988542486     1.58592600000000
 42    14.29202938226232    -1.09788777524802     0.00000000000000
 16    15.86941828781161    -2.01257551356084    -1.58592600000000
 16    15.86941828781161    -2.01257551356084     1.58592600000000
 42    12.73853891301159     1.60157991602776     0.00000000000000
 16    14.31592781856088     0.68689217771494    -1.58592600000000
 16    14.31592781856088     0.68689217771494     1.58592600000000
 42    11.18504844376086     4.30104760730354     0.00000000000000
 16    12.76243734931014     3.38635986899072    -1.58592600000000
 16    12.76243734931014     3.38635986899072     1.58592600000000
 42     9.63155797451013     7.00051529857932     0.00000000000000
 16    11.20894688005941     6.08582756026650    -1.58592600000000
 16    11.20894688005941     6.08582756026650     1.58592600000000
 42     8.07806750525939     9.69998298985510     0.00000000000000
 16     9.65545641080868     8.78529525154228    -1.58592600000000
 16     9.65545641080868     8.78529525154228     1.58592600000000
 42     6.52457703600866    12.39945068113088     0.00000000000000
 16     8.10196594155795    11.48476294281806    -1.58592600000000
 16     8.10196594155795    11.48476294281806     1.58592600000000
 42     4.97108656675793    15.09891837240666     0.00000000000000
 16     6.54847547230722    14.18423063409385    -1.58592600000000
 16     6.54847547230722    14.18423063409385     1.58592600000000
 42     3.41759609750720    17.79838606368244     0.00000000000000
 16     4.99498500305649    16.88369832536962    -1.58592600000000
 16     4.99498500305649    16.88369832536962     1.58592600000000
 42     1.86410562825647    20.49785375495822     0.00000000000000
 16     3.44149453380575    19.58316601664540    -1.58592600000000
 16     3.44149453380575    19.58316601664540     1.58592600000000
 16     1.88800406455502    22.28263370792119    -1.58592600000000
 16     1.88800406455502    22.28263370792119     1.58592600000000
 42    17.47069129346490    -1.14355395275170     0.00000000000000
 16    19.04808019901418    -2.05824169106451    -1.58592600000000
 16    19.04808019901418    -2.05824169106451     1.58592600000000
 42    15.91720082421417     1.55591373852408     0.00000000000000
 16    17.49458972976345     0.64122600021127    -1.58592600000000
 16    17.49458972976345     0.64122600021127     1.58592600000000
 42    14.36371035496344     4.25538142979986     0.00000000000000
 16    15.94109926051272     3.34069369148705    -1.58592600000000
 16    15.94109926051272     3.34069369148705     1.58592600000000
 42    12.81021988571270     6.95484912107564     0.00000000000000
 16    14.38760879126199     6.04016138276283    -1.58592600000000
 16    14.38760879126199     6.04016138276283     1.58592600000000
 42    11.25672941646197     9.65431681235143     0.00000000000000
 16    12.83411832201126     8.73962907403861    -1.58592600000000
 16    12.83411832201126     8.73962907403861     1.58592600000000
 42     9.70323894721124    12.35378450362720     0.00000000000000
 16    11.28062785276053    11.43909676531439    -1.58592600000000
 16    11.28062785276053    11.43909676531439     1.58592600000000
 42     8.14974847796051    15.05325219490298     0.00000000000000
 16     9.72713738350980    14.13856445659017    -1.58592600000000
 16     9.72713738350980    14.13856445659017     1.58592600000000
 42     6.59625800870978    17.75271988617876     0.00000000000000
 16     8.17364691425906    16.83803214786595    -1.58592600000000
 16     8.17364691425906    16.83803214786595     1.58592600000000
 42     5.04276753945904    20.45218757745454     0.00000000000000
 16     6.62015644500833    19.53749983914173    -1.58592600000000
 16     6.62015644500833    19.53749983914173     1.58592600000000
 42    20.64935320466748    -1.18922013025537     0.00000000000000
 16    22.22674211021676    -2.10390786856819    -1.58592600000000
 16    22.22674211021676    -2.10390786856819     1.58592600000000
 42    19.09586273541675     1.51024756102041     0.00000000000000
 16    20.67325164096603     0.59555982270759    -1.58592600000000
 16    20.67325164096603     0.59555982270759     1.58592600000000
 42    17.54237226616601     4.20971525229619     0.00000000000000
 16    19.11976117171530     3.29502751398337    -1.58592600000000
 16    19.11976117171530     3.29502751398337     1.58592600000000
 42    15.98888179691528     6.90918294357197     0.00000000000000
 16    17.56627070246456     5.99449520525915    -1.58592600000000
 16    17.56627070246456     5.99449520525915     1.58592600000000
 42    14.43539132766455     9.60865063484775     0.00000000000000
 16    16.01278023321383     8.69396289653493    -1.58592600000000
 16    16.01278023321383     8.69396289653493     1.58592600000000
 42    12.88190085841382    12.30811832612353     0.00000000000000
 16    14.45928976396310    11.39343058781071    -1.58592600000000
 16    14.45928976396310    11.39343058781071     1.58592600000000
 42    11.32841038916309    15.00758601739931     0.00000000000000
 16    12.90579929471237    14.09289827908649    -1.58592600000000
 16    12.90579929471237    14.09289827908649     1.58592600000000
 42     9.77491991991235    17.70705370867509     0.00000000000000
 16    11.35230882546164    16.79236597036227    -1.58592600000000
 16    11.35230882546164    16.79236597036227     1.58592600000000
 42     8.22142945066162    20.40652139995087     0.00000000000000
 16     9.79881835621091    19.49183366163805    -1.58592600000000
 16     9.79881835621091    19.49183366163805     1.58592600000000
 42    25.38150558512079    -3.93435399903483     0.00000000000000
 42    23.82801511587006    -1.23488630775905     0.00000000000000
 16    25.40540402141934    -2.14957404607187    -1.58592600000000
 16    25.40540402141934    -2.14957404607187     1.58592600000000
 42    22.27452464661932     1.46458138351673     0.00000000000000
 16    23.85191355216861     0.54989364520392    -1.58592600000000
 16    23.85191355216861     0.54989364520392     1.58592600000000
 42    20.72103417736859     4.16404907479251     0.00000000000000
 16    22.29842308291787     3.24936133647970    -1.58592600000000
 16    22.29842308291787     3.24936133647970     1.58592600000000
 42    19.16754370811786     6.86351676606829     0.00000000000000
 16    20.74493261366714     5.94882902775548    -1.58592600000000
 16    20.74493261366714     5.94882902775548     1.58592600000000
 42    17.61405323886713     9.56298445734408     0.00000000000000
 16    19.19144214441641     8.64829671903126    -1.58592600000000
 16    19.19144214441641     8.64829671903126     1.58592600000000
 42    16.06056276961639    12.26245214861985     0.00000000000000
 16    17.63795167516567    11.34776441030704    -1.58592600000000
 16    17.63795167516567    11.34776441030704     1.58592600000000
 42    14.50707230036567    14.96191983989563     0.00000000000000
 16    16.08446120591495    14.04723210158282    -1.58592600000000
 16    16.08446120591495    14.04723210158282     1.58592600000000
 42    12.95358183111493    17.66138753117141     0.00000000000000
 42    28.56016749632337    -3.98002017653851     0.00000000000000
 16    30.13755640187265    -4.89470791485132    -1.58592600000000
 16    30.13755640187265    -4.89470791485132     1.58592600000000
 42    27.00667702707263    -1.28055248526273     0.00000000000000
 16    28.58406593262192    -2.19524022357554    -1.58592600000000
 16    28.58406593262192    -2.19524022357554     1.58592600000000
 42    25.45318655782190     1.41891520601306     0.00000000000000
 16    27.03057546337119     0.50422746770024    -1.58592600000000
 16    27.03057546337119     0.50422746770024     1.58592600000000
 42    23.89969608857117     4.11838289728884     0.00000000000000
 16    25.47708499412045     3.20369515897602    -1.58592600000000
 16    25.47708499412045     3.20369515897602     1.58592600000000
 42    22.34620561932043     6.81785058856462     0.00000000000000
 16    23.92359452486972     5.90316285025180    -1.58592600000000
 16    23.92359452486972     5.90316285025180     1.58592600000000
 42    31.73882940752595    -4.02568635404218     0.00000000000000
 16    33.31621831307524    -4.94037409235500    -1.58592600000000
 16    33.31621831307524    -4.94037409235500     1.58592600000000
 42    30.18533893827522    -1.32621866276640     0.00000000000000
 34   -17.95085324160760    19.93300802727009     4.64114160000000
 34   -17.95085324160760    19.93300802727009     7.98585840000000
 42   -21.51084922773143    23.53205138696938     6.31350000000000
 34   -19.80622007177405    22.70055427360632     4.64114160000000
 34   -19.80622007177405    22.70055427360632     7.98585840000000
 42   -23.36621605789787    26.29959763330561     6.31350000000000
 34   -21.66158690194049    25.46810051994255     4.64114160000000
 34   -21.66158690194049    25.46810051994255     7.98585840000000
 34    -5.41540802855007     6.36717030463568     4.64114160000000
 34    -5.41540802855007     6.36717030463568     7.98585840000000
 42    -8.97540401467390     9.96621366433496     6.31350000000000
 34    -7.27077485871652     9.13471655097190     4.64114160000000
 34    -7.27077485871652     9.13471655097190     7.98585840000000
 42   -10.83077084484034    12.73375991067118     6.31350000000000
 34    -9.12614168888296    11.90226279730813     4.64114160000000
 34    -9.12614168888296    11.90226279730813     7.98585840000000
 42   -12.68613767500678    15.50130615700741     6.31350000000000
 34   -10.98150851904940    14.66980904364435     4.64114160000000
 34   -10.98150851904940    14.66980904364435     7.98585840000000
 42   -14.54150450517322    18.26885240334364     6.31350000000000
 34   -12.83687534921584    17.43735528998058     4.64114160000000
 34   -12.83687534921584    17.43735528998058     7.98585840000000
 42   -16.39687133533966    21.03639864967986     6.31350000000000
 34   -14.69224217938228    20.20490153631680     4.64114160000000
 34   -14.69224217938228    20.20490153631680     7.98585840000000
 42   -18.25223816550610    23.80394489601608     6.31350000000000
 34   -16.54760900954872    22.97244778265303     4.64114160000000
 34   -16.54760900954872    22.97244778265303     7.98585840000000
 34   -18.40297583971516    25.73999402898925     4.64114160000000
 34   -18.40297583971516    25.73999402898925     7.98585840000000
 42    -0.15069246194925     1.93546843437299     6.31350000000000
 34     1.55393669400813     1.10397132100994     4.64114160000000
 34     1.55393669400813     1.10397132100994     7.98585840000000
 42    -2.00605929211569     4.70301468070922     6.31350000000000
 34    -0.30143013615831     3.87151756734616     4.64114160000000
 34    -0.30143013615831     3.87151756734616     7.98585840000000
 42    -3.86142612228213     7.47056092704544     6.31350000000000
 34    -2.15679696632475     6.63906381368239     4.64114160000000
 34    -2.15679696632475     6.63906381368239     7.98585840000000
 42    -5.71679295244857    10.23810717338167     6.31350000000000
 34    -4.01216379649119     9.40661006001861     4.64114160000000
 34    -4.01216379649119     9.40661006001861     7.98585840000000
 42    -7.57215978261502    13.00565341971789     6.31350000000000
 34    -5.86753062665763    12.17415630635483     4.64114160000000
 34    -5.86753062665763    12.17415630635483     7.98585840000000
 42    -9.42752661278146    15.77319966605412     6.31350000000000
 34    -7.72289745682407    14.94170255269106     4.64114160000000
 34    -7.72289745682407    14.94170255269106     7.98585840000000
 42   -11.28289344294790    18.54074591239034     6.31350000000000
 34    -9.57826428699051    17.70924879902729     4.64114160000000
 34    -9.57826428699051    17.70924879902729     7.98585840000000
 42   -13.13826027311434    21.30829215872657     6.31350000000000
 34   -11.43363111715695    20.47679504536351     4.64114160000000
 34   -11.43363111715695    20.47679504536351     7.98585840000000
 42   -14.99362710328078    24.07583840506279     6.31350000000000
 34   -13.28899794732340    23.24434129169973     4.64114160000000
 34   -13.28899794732340    23.24434129169973     7.98585840000000
 42     4.96328543044252    -0.56018430291652     6.31350000000000
 42     3.10791860027608     2.20736194341970     6.31350000000000
 34     4.81254775623346     1.37586483005664     4.64114160000000
 34     4.81254775623346     1.37586483005664     7.98585840000000
 42     1.25255177010963     4.97490818975593     6.31350000000000
 34     2.95718092606702     4.14341107639287     4.64114160000000
 34     2.95718092606702     4.14341107639287     7.98585840000000
 42    -0.60281506005681     7.74245443609215     6.31350000000000
 34     1.10181409590058     6.91095732272909     4.64114160000000
 34     1.10181409590058     6.91095732272909     7.98585840000000
 42    -2.45818189022325    10.51000068242838     6.31350000000000
 34    -0.75355273426587     9.67850356906532     4.64114160000000
 34    -0.75355273426587     9.67850356906532     7.98585840000000
 42    -4.31354872038969    13.27754692876460     6.31350000000000
 34    -2.60891956443231    12.44604981540154     4.64114160000000
 34    -2.60891956443231    12.44604981540154     7.98585840000000
 42    -6.16891555055613    16.04509317510082     6.31350000000000
 34    -4.46428639459875    15.21359606173777     4.64114160000000
 34    -4.46428639459875    15.21359606173777     7.98585840000000
 42    -8.02428238072257    18.81263942143705     6.31350000000000
 34    -6.31965322476519    17.98114230807399     4.64114160000000
 34    -6.31965322476519    17.98114230807399     7.98585840000000
 42    -9.87964921088901    21.58018566777328     6.31350000000000
 34    -8.17502005493163    20.74868855441022     4.64114160000000
 34    -8.17502005493163    20.74868855441022     7.98585840000000
 42   -11.73501604105546    24.34773191410950     6.31350000000000
 34   -10.03038688509807    23.51623480074644     4.64114160000000
 34   -10.03038688509807    23.51623480074644     7.98585840000000
 42     8.22189649266784    -0.28829079386982     6.31350000000000
 34     9.92652564862522    -1.11978790723288     4.64114160000000
 34     9.92652564862522    -1.11978790723288     7.98585840000000
 42     6.36652966250140     2.47925545246641     6.31350000000000
 34     8.07115881845878     1.64775833910335     4.64114160000000
 34     8.07115881845878     1.64775833910335     7.98585840000000
 42     4.51116283233496     5.24680169880263     6.31350000000000
 34     6.21579198829234     4.41530458543957     4.64114160000000
 34     6.21579198829234     4.41530458543957     7.98585840000000
 42     2.65579600216852     8.01434794513886     6.31350000000000
 34     4.36042515812590     7.18285083177580     4.64114160000000
 34     4.36042515812590     7.18285083177580     7.98585840000000
 42     0.80042917200208    10.78189419147508     6.31350000000000
 34     2.50505832795946     9.95039707811202     4.64114160000000
 34     2.50505832795946     9.95039707811202     7.98585840000000
 42    -1.05493765816437    13.54944043781130     6.31350000000000
 34     0.64969149779302    12.71794332444824     4.64114160000000
 34     0.64969149779302    12.71794332444824     7.98585840000000
 42    -2.91030448833081    16.31698668414753     6.31350000000000
 34    -1.20567533237342    15.48548957078448     4.64114160000000
 34    -1.20567533237342    15.48548957078448     7.98585840000000
 42    -4.76567131849725    19.08453293048376     6.31350000000000
 34    -3.06104216253986    18.25303581712070     4.64114160000000
 34    -3.06104216253986    18.25303581712070     7.98585840000000
 42    -6.62103814866369    21.85207917681998     6.31350000000000
 34    -4.91640899270630    21.02058206345692     4.64114160000000
 34    -4.91640899270630    21.02058206345692     7.98585840000000
 34    -6.77177582287275    23.78812830979314     4.64114160000000
 34    -6.77177582287275    23.78812830979314     7.98585840000000
 42    11.48050755489317    -0.01639728482311     6.31350000000000
 34    13.18513671085055    -0.84789439818617     4.64114160000000
 34    13.18513671085055    -0.84789439818617     7.98585840000000
 42     9.62514072472672     2.75114896151311     6.31350000000000
 34    11.32976988068411     1.91965184815006     4.64114160000000
 34    11.32976988068411     1.91965184815006     7.98585840000000
 42     7.76977389456028     5.51869520784934     6.31350000000000
 34     9.47440305051767     4.68719809448628     4.64114160000000
 34     9.47440305051767     4.68719809448628     7.98585840000000
 42     5.91440706439384     8.28624145418556     6.31350000000000
 34     7.61903622035123     7.45474434082250     4.64114160000000
 34     7.61903622035123     7.45474434082250     7.98585840000000
 42     4.05904023422740    11.05378770052179     6.31350000000000
 34     5.76366939018478    10.22229058715873     4.64114160000000
 34     5.76366939018478    10.22229058715873     7.98585840000000
 42     2.20367340406096    13.82133394685801     6.31350000000000
 34     3.90830256001834    12.98983683349495     4.64114160000000
 34     3.90830256001834    12.98983683349495     7.98585840000000
 42     0.34830657389452    16.58888019319424     6.31350000000000
 34     2.05293572985190    15.75738307983118     4.64114160000000
 34     2.05293572985190    15.75738307983118     7.98585840000000
 42    -1.50706025627192    19.35642643953046     6.31350000000000
 34     0.19756889968546    18.52492932616740     4.64114160000000
 34     0.19756889968546    18.52492932616740     7.98585840000000
 42    -3.36242708643836    22.12397268586669     6.31350000000000
 34    -1.65779793048098    21.29247557250363     4.64114160000000
 34    -1.65779793048098    21.29247557250363     7.98585840000000
 42    16.59448544728494    -2.51205002211263     6.31350000000000
 42    14.73911861711850     0.25549622422359     6.31350000000000
 34    16.44374777307588    -0.57600088913946     4.64114160000000
 34    16.44374777307588    -0.57600088913946     7.98585840000000
 42    12.88375178695205     3.02304247055982     6.31350000000000
 34    14.58838094290943     2.19154535719676     4.64114160000000
 34    14.58838094290943     2.19154535719676     7.98585840000000
 42    11.02838495678561     5.79058871689605     6.31350000000000
 34    12.73301411274299     4.95909160353299     4.64114160000000
 34    12.73301411274299     4.95909160353299     7.98585840000000
 42     9.17301812661917     8.55813496323227     6.31350000000000
 34    10.87764728257655     7.72663784986921     4.64114160000000
 34    10.87764728257655     7.72663784986921     7.98585840000000
 42     7.31765129645273    11.32568120956850     6.31350000000000
 34     9.02228045241011    10.49418409620544     4.64114160000000
 34     9.02228045241011    10.49418409620544     7.98585840000000
 42     5.46228446628629    14.09322745590472     6.31350000000000
 34     7.16691362224367    13.26173034254166     4.64114160000000
 34     7.16691362224367    13.26173034254166     7.98585840000000
 42     3.60691763611985    16.86077370224095     6.31350000000000
 34     5.31154679207723    16.02927658887788     4.64114160000000