CRYSTAL
PRIMVEC
 31.69475760699846 -5.85370243306605 0.00000000000000
 -18.72409114877828 27.28545075041328 0.00000000000000
 0.00000000000000 0.00000000000000 19.57178440000000
PRIMCOORD
 504 1
 16    -6.24136149835476     9.09533035035966    -1.58592600000000
 16    -6.24136149835476     9.09533035035966     1.58592600000000
 16    -7.79615766576392    11.81936846763981    -1.58592600000000
 16    -7.79615766576392    11.81936846763981     1.58592600000000
 16    -9.35095383317308    14.54340658491996    -1.58592600000000
 16    -9.35095383317308    14.54340658491996     1.58592600000000
 42   -12.48272965042352    18.19012040005362     0.00000000000000
 16   -10.90575000058224    17.26744470220011    -1.58592600000000
 16   -10.90575000058224    17.26744470220011     1.58592600000000
 42   -14.03752581783267    20.91415851733377     0.00000000000000
 16   -12.46054616799140    19.99148281948026    -1.58592600000000
 16   -12.46054616799140    19.99148281948026     1.58592600000000
 42   -15.59232198524184    23.63819663461392     0.00000000000000
 16   -14.01534233540056    22.71552093676042    -1.58592600000000
 16   -14.01534233540056    22.71552093676042     1.58592600000000
 42   -17.14711815265100    26.36223475189407     0.00000000000000
 16   -15.57013850280972    25.43955905404057    -1.58592600000000
 16   -15.57013850280972    25.43955905404057     1.58592600000000
 42     0.02217682871812     1.80082211876095     0.00000000000000
 16     1.59915647855940     0.87814642090745    -1.58592600000000
 16     1.59915647855940     0.87814642090745     1.58592600000000
 42    -1.53261933869103     4.52486023604111     0.00000000000000
 16     0.04436031115024     3.60218453818760    -1.58592600000000
 16     0.04436031115024     3.60218453818760     1.58592600000000
 42    -3.08741550610019     7.24889835332126     0.00000000000000
 16    -1.51043585625892     6.32622265546775    -1.58592600000000
 16    -1.51043585625892     6.32622265546775     1.58592600000000
 42    -4.64221167350936     9.97293647060141     0.00000000000000
 16    -3.06523202366808     9.05026077274791    -1.58592600000000
 16    -3.06523202366808     9.05026077274791     1.58592600000000
 42    -6.19700784091851    12.69697458788156     0.00000000000000
 16    -4.62002819107724    11.77429889002806    -1.58592600000000
 16    -4.62002819107724    11.77429889002806     1.58592600000000
 42    -7.75180400832767    15.42101270516171     0.00000000000000
 16    -6.17482435848640    14.49833700730821    -1.58592600000000
 16    -6.17482435848640    14.49833700730821     1.58592600000000
 42    -9.30660017573683    18.14505082244187     0.00000000000000
 16    -7.72962052589556    17.22237512458836    -1.58592600000000
 16    -7.72962052589556    17.22237512458836     1.58592600000000
 42   -10.86139634314599    20.86908893972202     0.00000000000000
 16    -9.28441669330472    19.94641324186852    -1.58592600000000
 16    -9.28441669330472    19.94641324186852     1.58592600000000
 42   -12.41619251055515    23.59312705700217     0.00000000000000
 16   -10.83921286071388    22.67045135914867    -1.58592600000000
 16   -10.83921286071388    22.67045135914867     1.58592600000000
 42   -13.97098867796431    26.31716517428233     0.00000000000000
 16   -12.39400902812304    25.39448947642882    -1.58592600000000
 16   -12.39400902812304    25.39448947642882     1.58592600000000
 42     3.19830630340481     1.75575254114920     0.00000000000000
 16     4.77528595324608     0.83307684329570    -1.58592600000000
 16     4.77528595324608     0.83307684329570     1.58592600000000
 42     1.64351013599565     4.47979065842936     0.00000000000000
 16     3.22048978583692     3.55711496057585    -1.58592600000000
 16     3.22048978583692     3.55711496057585     1.58592600000000
 42     0.08871396858649     7.20382877570951     0.00000000000000
 16     1.66569361842776     6.28115307785600    -1.58592600000000
 16     1.66569361842776     6.28115307785600     1.58592600000000
 42    -1.46608219882267     9.92786689298966     0.00000000000000
 16     0.11089745101860     9.00519119513616    -1.58592600000000
 16     0.11089745101860     9.00519119513616     1.58592600000000
 42    -3.02087836623183    12.65190501026981     0.00000000000000
 16    -1.44389871639056    11.72922931241631    -1.58592600000000
 16    -1.44389871639056    11.72922931241631     1.58592600000000
 42    -4.57567453364099    15.37594312754997     0.00000000000000
 16    -2.99869488379972    14.45326742969646    -1.58592600000000
 16    -2.99869488379972    14.45326742969646     1.58592600000000
 42    -6.13047070105015    18.09998124483011     0.00000000000000
 16    -4.55349105120888    17.17730554697661    -1.58592600000000
 16    -4.55349105120888    17.17730554697661     1.58592600000000
 42    -7.68526686845931    20.82401936211027     0.00000000000000
 16    -6.10828721861804    19.90134366425676    -1.58592600000000
 16    -6.10828721861804    19.90134366425676     1.58592600000000
 42    -9.24006303586847    23.54805747939043     0.00000000000000
 16    -7.66308338602720    22.62538178153692    -1.58592600000000
 16    -7.66308338602720    22.62538178153692     1.58592600000000
 16    -9.21787955343636    25.34941989881708    -1.58592600000000
 16    -9.21787955343636    25.34941989881708     1.58592600000000
 42     7.92923194550065    -1.01335515374270     0.00000000000000
 42     6.37443577809149     1.71068296353745     0.00000000000000
 16     7.95141542793276     0.78800726568395    -1.58592600000000
 16     7.95141542793276     0.78800726568395     1.58592600000000
 42     4.81963961068233     4.43472108081761     0.00000000000000
 16     6.39661926052360     3.51204538296410    -1.58592600000000
 16     6.39661926052360     3.51204538296410     1.58592600000000
 42     3.26484344327317     7.15875919809776     0.00000000000000
 16     4.84182309311444     6.23608350024426    -1.58592600000000
 16     4.84182309311444     6.23608350024426     1.58592600000000
 42     1.71004727586401     9.88279731537791     0.00000000000000
 16     3.28702692570528     8.96012161752441    -1.58592600000000
 16     3.28702692570528     8.96012161752441     1.58592600000000
 42     0.15525110845485    12.60683543265806     0.00000000000000
 16     1.73223075829612    11.68415973480456    -1.58592600000000
 16     1.73223075829612    11.68415973480456     1.58592600000000
 42    -1.39954505895431    15.33087354993822     0.00000000000000
 16     0.17743459088696    14.40819785208471    -1.58592600000000
 16     0.17743459088696    14.40819785208471     1.58592600000000
 42    -2.95434122636347    18.05491166721837     0.00000000000000
 16    -1.37736157652220    17.13223596936486    -1.58592600000000
 16    -1.37736157652220    17.13223596936486     1.58592600000000
 42    -4.50913739377263    20.77894978449852     0.00000000000000
 16    -2.93215774393136    19.85627408664502    -1.58592600000000
 16    -2.93215774393136    19.85627408664502     1.58592600000000
 42    -6.06393356118179    23.50298790177867     0.00000000000000
 16    -4.48695391134052    22.58031220392517    -1.58592600000000
 16    -4.48695391134052    22.58031220392517     1.58592600000000
 42    11.10536142018733    -1.05842473135445     0.00000000000000
 16    12.68234107002860    -1.98110042920795    -1.58592600000000
 16    12.68234107002860    -1.98110042920795     1.58592600000000
 42     9.55056525277817     1.66561338592571     0.00000000000000
 16    11.12754490261944     0.74293768807220    -1.58592600000000
 16    11.12754490261944     0.74293768807220     1.58592600000000
 42     7.99576908536901     4.38965150320586     0.00000000000000
 16     9.57274873521029     3.46697580535235    -1.58592600000000
 16     9.57274873521029     3.46697580535235     1.58592600000000
 42     6.44097291795985     7.11368962048601     0.00000000000000
 16     8.01795256780112     6.19101392263251    -1.58592600000000
 16     8.01795256780112     6.19101392263251     1.58592600000000
 42     4.88617675055069     9.83772773776616     0.00000000000000
 16     6.46315640039196     8.91505203991266    -1.58592600000000
 16     6.46315640039196     8.91505203991266     1.58592600000000
 42     3.33138058314153    12.56176585504631     0.00000000000000
 16     4.90836023298280    11.63909015719281    -1.58592600000000
 16     4.90836023298280    11.63909015719281     1.58592600000000
 42     1.77658441573237    15.28580397232647     0.00000000000000
 16     3.35356406557364    14.36312827447296    -1.58592600000000
 16     3.35356406557364    14.36312827447296     1.58592600000000
 42     0.22178824832321    18.00984208960662     0.00000000000000
 16     1.79876789816448    17.08716639175312    -1.58592600000000
 16     1.79876789816448    17.08716639175312     1.58592600000000
 42    -1.33300791908595    20.73388020688677     0.00000000000000
 16     0.24397173075532    19.81120450903327    -1.58592600000000
 16     0.24397173075532    19.81120450903327     1.58592600000000
 42    -2.88780408649511    23.45791832416693     0.00000000000000
 16    -1.31082443665384    22.53524262631342    -1.58592600000000
 16    -1.31082443665384    22.53524262631342     1.58592600000000
 42    14.28149089487402    -1.10349430896620     0.00000000000000
 16    15.85847054471529    -2.02617000681970    -1.58592600000000
 16    15.85847054471529    -2.02617000681970     1.58592600000000
 42    12.72669472746486     1.62054380831396     0.00000000000000
 16    14.30367437730613     0.69786811046045    -1.58592600000000
 16    14.30367437730613     0.69786811046045     1.58592600000000
 42    11.17189856005569     4.34458192559411     0.00000000000000
 16    12.74887820989697     3.42190622774060    -1.58592600000000
 16    12.74887820989697     3.42190622774060     1.58592600000000
 42     9.61710239264654     7.06862004287426     0.00000000000000
 16    11.19408204248781     6.14594434502076    -1.58592600000000
 16    11.19408204248781     6.14594434502076     1.58592600000000
 42     8.06230622523738     9.79265816015442     0.00000000000000
 16     9.63928587507865     8.86998246230091    -1.58592600000000
 16     9.63928587507865     8.86998246230091     1.58592600000000
 42     6.50751005782822    12.51669627743457     0.00000000000000
 16     8.08448970766949    11.59402057958106    -1.58592600000000
 16     8.08448970766949    11.59402057958106     1.58592600000000
 42     4.95271389041906    15.24073439471472     0.00000000000000
 16     6.52969354026033    14.31805869686121    -1.58592600000000
 16     6.52969354026033    14.31805869686121     1.58592600000000
 42     3.39791772300990    17.96477251199487     0.00000000000000
 16     4.97489737285117    17.04209681414137    -1.58592600000000
 16     4.97489737285117    17.04209681414137     1.58592600000000
 42     1.84312155560074    20.68881062927503     0.00000000000000
 16     3.42010120544201    19.76613493142152    -1.58592600000000
 16     3.42010120544201    19.76613493142152     1.58592600000000
 42     0.28832538819158    23.41284874655518     0.00000000000000
 16     1.86530503803285    22.49017304870167    -1.58592600000000
 16     1.86530503803285    22.49017304870167     1.58592600000000
 42    17.45762036956070    -1.14856388657795     0.00000000000000
 16    19.03460001940197    -2.07123958443145    -1.58592600000000
 16    19.03460001940197    -2.07123958443145     1.58592600000000
 42    15.90282420215154     1.57547423070221     0.00000000000000
 16    17.47980385199281     0.65279853284870    -1.58592600000000
 16    17.47980385199281     0.65279853284870     1.58592600000000
 42    14.34802803474238     4.29951234798236     0.00000000000000
 16    15.92500768458365     3.37683665012885    -1.58592600000000
 16    15.92500768458365     3.37683665012885     1.58592600000000
 42    12.79323186733322     7.02355046526251     0.00000000000000
 16    14.37021151717449     6.10087476740901    -1.58592600000000
 16    14.37021151717449     6.10087476740901     1.58592600000000
 42    11.23843569992406     9.74758858254267     0.00000000000000
 16    12.81541534976533     8.82491288468916    -1.58592600000000
 16    12.81541534976533     8.82491288468916     1.58592600000000
 42     9.68363953251490    12.47162669982282     0.00000000000000
 16    11.26061918235617    11.54895100196931    -1.58592600000000
 16    11.26061918235617    11.54895100196931     1.58592600000000
 42     8.12884336510574    15.19566481710297     0.00000000000000
 16     9.70582301494701    14.27298911924946    -1.58592600000000
 16     9.70582301494701    14.27298911924946     1.58592600000000
 42     6.57404719769658    17.91970293438312     0.00000000000000
 16     8.15102684753785    16.99702723652961    -1.58592600000000
 16     8.15102684753785    16.99702723652961     1.58592600000000
 42     5.01925103028742    20.64374105166328     0.00000000000000
 16     6.59623068012869    19.72106535380977    -1.58592600000000
 16     6.59623068012869    19.72106535380977     1.58592600000000
 16     5.04143451271953    22.44510347108992    -1.58592600000000
 16     5.04143451271953    22.44510347108992     1.58592600000000
 42    22.18854601165654    -3.91767158146985     0.00000000000000
 42    20.63374984424738    -1.19363346418969     0.00000000000000
 16    22.21072949408865    -2.11630916204320    -1.58592600000000
 16    22.21072949408865    -2.11630916204320     1.58592600000000
 42    19.07895367683822     1.53040465309046     0.00000000000000
 16    20.65593332667949     0.60772895523695    -1.58592600000000
 16    20.65593332667949     0.60772895523695     1.58592600000000
 42    17.52415750942906     4.25444277037061     0.00000000000000
 16    19.10113715927033     3.33176707251710    -1.58592600000000
 16    19.10113715927033     3.33176707251710     1.58592600000000
 42    15.96936134201990     6.97848088765076     0.00000000000000
 16    17.54634099186117     6.05580518979726    -1.58592600000000
 16    17.54634099186117     6.05580518979726     1.58592600000000
 42    14.41456517461074     9.70251900493092     0.00000000000000
 16    15.99154482445201     8.77984330707741    -1.58592600000000
 16    15.99154482445201     8.77984330707741     1.58592600000000
 42    12.85976900720158    12.42655712221107     0.00000000000000
 16    14.43674865704286    11.50388142435756    -1.58592600000000
 16    14.43674865704286    11.50388142435756     1.58592600000000
 42    11.30497283979242    15.15059523949122     0.00000000000000
 16    12.88195248963369    14.22791954163771    -1.58592600000000
 16    12.88195248963369    14.22791954163771     1.58592600000000
 42     9.75017667238326    17.87463335677137     0.00000000000000
 16    11.32715632222453    16.95195765891787    -1.58592600000000
 16    11.32715632222453    16.95195765891787     1.58592600000000
 42     8.19538050497410    20.59867147405152     0.00000000000000
 16     9.77236015481538    19.67599577619802    -1.58592600000000
 16     9.77236015481538    19.67599577619802     1.58592600000000
 42    25.36467548634322    -3.96274115908160     0.00000000000000
 16    26.94165513618449    -4.88541685693510    -1.58592600000000
 16    26.94165513618449    -4.88541685693510     1.58592600000000
 42    23.80987931893406    -1.23870304180144     0.00000000000000
 16    25.38685896877533    -2.16137873965495    -1.58592600000000
 16    25.38685896877533    -2.16137873965495     1.58592600000000
 42    22.25508315152490     1.48533507547871     0.00000000000000
 16    23.83206280136617     0.56265937762520    -1.58592600000000
 16    23.83206280136617     0.56265937762520     1.58592600000000
 42    20.70028698411574     4.20937319275886     0.00000000000000
 16    22.27726663395701     3.28669749490536    -1.58592600000000
 16    22.27726663395701     3.28669749490536     1.58592600000000
 42    19.14549081670658     6.93341131003901     0.00000000000000
 16    20.72247046654785     6.01073561218551    -1.58592600000000
 16    20.72247046654785     6.01073561218551     1.58592600000000
 42    17.59069464929742     9.65744942731917     0.00000000000000
 16    19.16767429913869     8.73477372946566    -1.58592600000000
 16    19.16767429913869     8.73477372946566     1.58592600000000
 42    16.03589848188826    12.38148754459932     0.00000000000000
 16    17.61287813172953    11.45881184674581    -1.58592600000000
 16    17.61287813172953    11.45881184674581     1.58592600000000
 42    14.48110231447910    15.10552566187947     0.00000000000000
 16    16.05808196432038    14.18284996402596    -1.58592600000000
 16    16.05808196432038    14.18284996402596     1.58592600000000
 42    12.92630614706994    17.82956377915962     0.00000000000000
 16    14.50328579691122    16.90688808130612    -1.58592600000000
 16    14.50328579691122    16.90688808130612     1.58592600000000
 42    11.37150997966078    20.55360189643978     0.00000000000000
 16    12.94848962950206    19.63092619858627    -1.58592600000000
 16    12.94848962950206    19.63092619858627     1.58592600000000
 42    28.54080496102990    -4.00781073669335     0.00000000000000
 16    30.11778461087118    -4.93048643454685    -1.58592600000000
 16    30.11778461087118    -4.93048643454685     1.58592600000000
 42    26.98600879362074    -1.28377261941319     0.00000000000000
 16    28.56298844346201    -2.20644831726670    -1.58592600000000
 16    28.56298844346201    -2.20644831726670     1.58592600000000
 42    25.43121262621158     1.44026549786696     0.00000000000000
 16    27.00819227605285     0.51758980001345    -1.58592600000000
 16    27.00819227605285     0.51758980001345     1.58592600000000
 42    23.87641645880242     4.16430361514711     0.00000000000000
 42    22.32162029139326     6.88834173242727     0.00000000000000
 42    20.76682412398410     9.61237984970742     0.00000000000000
 42    -0.16169281142178     1.91600229697166     6.31350000000000
 34     1.54897497933957     1.10403437707691     4.64114160000000
 34     1.54897497933957     1.10403437707691     7.98585840000000
 42    -2.03410192629961     4.64454737201299     6.31350000000000
 34    -0.32343413553826     3.83257945211823     4.64114160000000
 34    -0.32343413553826     3.83257945211823     7.98585840000000
 42    -3.90651104117744     7.37309244705432     6.31350000000000
 34    -2.19584325041608     6.56112452715956     4.64114160000000
 34    -2.19584325041608     6.56112452715956     7.98585840000000
 42    -5.77892015605527    10.10163752209564     6.31350000000000
 34    -4.06825236529391     9.28966960220089     4.64114160000000
 34    -4.06825236529391     9.28966960220089     7.98585840000000
 42    -7.65132927093310    12.83018259713697     6.31350000000000
 34    -5.94066148017174    12.01821467724221     4.64114160000000
 34    -5.94066148017174    12.01821467724221     7.98585840000000
 42    -9.52373838581093    15.55872767217830     6.31350000000000
 34    -7.81307059504957    14.74675975228354     4.64114160000000
 34    -7.81307059504957    14.74675975228354     7.98585840000000
 42   -11.39614750068875    18.28727274721962     6.31350000000000
 34    -9.68547970992740    17.47530482732487     4.64114160000000
 34    -9.68547970992740    17.47530482732487     7.98585840000000
 42   -13.26855661556658    21.01581782226095     6.31350000000000
 34   -11.55788882480523    20.20384990236619     4.64114160000000
 34   -11.55788882480523    20.20384990236619     7.98585840000000
 42   -15.14096573044441    23.74436289730228     6.31350000000000
 34   -13.43029793968306    22.93239497740752     4.64114160000000
 34   -13.43029793968306    22.93239497740752     7.98585840000000
 42   -17.01337484532224    26.47290797234360     6.31350000000000
 34   -15.30270705456088    25.66094005244885     4.64114160000000
 34   -15.30270705456088    25.66094005244885     7.98585840000000
 42     4.97040758625167    -0.52105117906242     6.31350000000000
 42     3.09799847137384     2.20749389597890     6.31350000000000
 34     4.80866626213519     1.39552597608415     4.64114160000000
 34     4.80866626213519     1.39552597608415     7.98585840000000
 42     1.22558935649601     4.93603897102023     6.31350000000000
 34     2.93625714725737     4.12407105112547     4.64114160000000
 34     2.93625714725737     4.12407105112547     7.98585840000000
 42    -0.64681975838182     7.66458404606156     6.31350000000000
 34     1.06384803237954     6.85261612616680     4.64114160000000
 34     1.06384803237954     6.85261612616680     7.98585840000000
 42    -2.51922887325965    10.39312912110288     6.31350000000000
 34    -0.80856108249829     9.58116120120813     4.64114160000000
 34    -0.80856108249829     9.58116120120813     7.98585840000000
 42    -4.39163798813748    13.12167419614421     6.31350000000000
 34    -2.68097019737612    12.30970627624946     4.64114160000000
 34    -2.68097019737612    12.30970627624946     7.98585840000000
 42    -6.26404710301530    15.85021927118554     6.31350000000000
 34    -4.55337931225395    15.03825135129078     4.64114160000000
 34    -4.55337931225395    15.03825135129078     7.98585840000000
 42    -8.13645621789313    18.57876434622687     6.31350000000000
 34    -6.42578842713178    17.76679642633211     4.64114160000000
 34    -6.42578842713178    17.76679642633211     7.98585840000000
 42   -10.00886533277096    21.30730942126819     6.31350000000000
 34    -8.29819754200960    20.49534150137344     4.64114160000000
 34    -8.29819754200960    20.49534150137344     7.98585840000000
 42   -11.88127444764879    24.03585449630952     6.31350000000000
 34   -10.17060665688744    23.22388657641476     4.64114160000000
 34   -10.17060665688744    23.22388657641476     7.98585840000000
 34   -12.04301577176526    25.95243165145609     4.64114160000000
 34   -12.04301577176526    25.95243165145609     7.98585840000000
 42     8.23009886904729    -0.22955958005518     6.31350000000000
 34     9.94076665980865    -1.04152749994994     4.64114160000000
 34     9.94076665980865    -1.04152749994994     7.98585840000000
 42     6.35768975416946     2.49898549498615     6.31350000000000
 34     8.06835754493082     1.68701757509139     4.64114160000000
 34     8.06835754493082     1.68701757509139     7.98585840000000
 42     4.48528063929163     5.22753057002747     6.31350000000000
 34     6.19594843005299     4.41556265013272     4.64114160000000
 34     6.19594843005299     4.41556265013272     7.98585840000000
 42     2.61287152441381     7.95607564506880     6.31350000000000
 34     4.32353931517516     7.14410772517404     4.64114160000000
 34     4.32353931517516     7.14410772517404     7.98585840000000
 42     0.74046240953598    10.68462072011012     6.31350000000000
 34     2.45113020029733     9.87265280021537     4.64114160000000
 34     2.45113020029733     9.87265280021537     7.98585840000000
 42    -1.13194670534185    13.41316579515145     6.31350000000000
 34     0.57872108541950    12.60119787525669     4.64114160000000
 34     0.57872108541950    12.60119787525669     7.98585840000000
 42    -3.00435582021968    16.14171087019278     6.31350000000000
 34    -1.29368802945833    15.32974295029802     4.64114160000000
 34    -1.29368802945833    15.32974295029802     7.98585840000000
 42    -4.87676493509751    18.87025594523410     6.31350000000000
 34    -3.16609714433616    18.05828802533935     4.64114160000000
 34    -3.16609714433616    18.05828802533935     7.98585840000000
 42    -6.74917404997534    21.59880102027543     6.31350000000000
 34    -5.03850625921398    20.78683310038068     4.64114160000000
 34    -5.03850625921398    20.78683310038068     7.98585840000000
 42    -8.62158316485317    24.32734609531676     6.31350000000000
 34    -6.91091537409181    23.51537817542201     4.64114160000000
 34    -6.91091537409181    23.51537817542201     7.98585840000000
 42    11.48979015184291     0.06193201895206     6.31350000000000
 34    13.20045794260427    -0.75003590094270     4.64114160000000
 34    13.20045794260427    -0.75003590094270     7.98585840000000
 42     9.61738103696509     2.79047709399339     6.31350000000000
 34    11.32804882772644     1.97850917409863     4.64114160000000
 34    11.32804882772644     1.97850917409863     7.98585840000000
 42     7.74497192208726     5.51902216903471     6.31350000000000
 34     9.45563971284861     4.70705424913996     4.64114160000000
 34     9.45563971284861     4.70705424913996     7.98585840000000
 42     5.87256280720943     8.24756724407604     6.31350000000000
 34     7.58323059797078     7.43559932418128     4.64114160000000
 34     7.58323059797078     7.43559932418128     7.98585840000000
 42     4.00015369233160    10.97611231911737     6.31350000000000
 34     5.71082148309295    10.16414439922261     4.64114160000000
 34     5.71082148309295    10.16414439922261     7.98585840000000
 42     2.12774457745377    13.70465739415869     6.31350000000000
 34     3.83841236821512    12.89268947426394     4.64114160000000
 34     3.83841236821512    12.89268947426394     7.98585840000000
 42     0.25533546257594    16.43320246920002     6.31350000000000
 34     1.96600325333730    15.62123454930527     4.64114160000000
 34     1.96600325333730    15.62123454930527     7.98585840000000
 42    -1.61707365230189    19.16174754424134     6.31350000000000
 34     0.09359413845947    18.34977962434660     4.64114160000000
 34     0.09359413845947    18.34977962434660     7.98585840000000
 42    -3.48948276717971    21.89029261928267     6.31350000000000
 34    -1.77881497641836    21.07832469938792     4.64114160000000
 34    -1.77881497641836    21.07832469938792     7.98585840000000
 42    -5.36189188205755    24.61883769432400     6.31350000000000
 34    -3.65122409129619    23.80686977442925     4.64114160000000
 34    -3.65122409129619    23.80686977442925     7.98585840000000
 42    16.62189054951636    -2.37512145708203     6.31350000000000
 34    18.33255834027772    -3.18708937697678     4.64114160000000
 34    18.33255834027772    -3.18708937697678     7.98585840000000
 42    14.74948143463853     0.35342361795930     6.31350000000000
 34    16.46014922539989    -0.45854430193545     4.64114160000000
 34    16.46014922539989    -0.45854430193545     7.98585840000000
 42    12.87707231976071     3.08196869300063     6.31350000000000
 34    14.58774011052206     2.27000077310587     4.64114160000000
 34    14.58774011052206     2.27000077310587     7.98585840000000
 42    11.00466320488288     5.81051376804196     6.31350000000000
 34    12.71533099564423     4.99854584814720     4.64114160000000
 34    12.71533099564423     4.99854584814720     7.98585840000000
 42     9.13225409000505     8.53905884308329     6.31350000000000
 34    10.84292188076640     7.72709092318853     4.64114160000000
 34    10.84292188076640     7.72709092318853     7.98585840000000
 42     7.25984497512722    11.26760391812461     6.31350000000000
 34     8.97051276588858    10.45563599822985     4.64114160000000
 34     8.97051276588858    10.45563599822985     7.98585840000000
 42     5.38743586024939    13.99614899316594     6.31350000000000
 34     7.09810365101074    13.18418107327118     4.64114160000000
 34     7.09810365101074    13.18418107327118     7.98585840000000
 42     3.51502674537156    16.72469406820726     6.31350000000000
 34     5.22569453613292    15.91272614831251     4.64114160000000
 34     5.22569453613292    15.91272614831251     7.98585840000000
 42     1.64261763049374    19.45323914324859     6.31350000000000
 34     3.35328542125509    18.64127122335384     4.64114160000000
 34     3.35328542125509    18.64127122335384     7.98585840000000
 42    -0.22979148438409    22.18178421828992     6.31350000000000
 34     1.48087630637726    21.36981629839516     4.64114160000000
 34     1.48087630637726    21.36981629839516     7.98585840000000
 42    19.88158183231199    -2.08362985807478     6.31350000000000
 34    21.59224962307334    -2.89559777796954     4.64114160000000
 34    21.59224962307334    -2.89559777796954     7.98585840000000
 42    18.00917271743416     0.64491521696654     6.31350000000000
 34    19.71984050819551    -0.16705270292821     4.64114160000000
 34    19.71984050819551    -0.16705270292821     7.98585840000000
 42    16.13676360255633     3.37346029200787     6.31350000000000
 34    17.84743139331768     2.56149237211311     4.64114160000000
 34    17.84743139331768     2.56149237211311     7.98585840000000
 42    14.26435448767850     6.10200536704920     6.31350000000000
 34    15.97502227843985     5.29003744715444     4.64114160000000
 34    15.97502227843985     5.29003744715444     7.98585840000000
 42    12.39194537280067     8.83055044209052     6.31350000000000
 34    14.10261316356203     8.01858252219577     4.64114160000000
 34    14.10261316356203     8.01858252219577     7.98585840000000
 42    10.51953625792284    11.55909551713185     6.31350000000000
 34    12.23020404868419    10.74712759723709     4.64114160000000
 34    12.23020404868419    10.74712759723709     7.98585840000000
 42     8.64712714304501    14.28764059217318     6.31350000000000
 34    10.35779493380637    13.47567267227842     4.64114160000000
 34    10.35779493380637    13.47567267227842     7.98585840000000
 42     6.77471802816719    17.01618566721450     6.31350000000000
 34     8.48538581892854    16.20421774731975     4.64114160000000
 34     8.48538581892854    16.20421774731975     7.98585840000000
 42     4.90230891328936    19.74473074225583     6.31350000000000
 34     6.61297670405071    18.93276282236108     4.64114160000000
 34     6.61297670405071    18.93276282236108     7.98585840000000
 42     3.02989979841153    22.47327581729716     6.31350000000000
 34     4.74056758917289    21.66130789740241     4.64114160000000
 34     4.74056758917289    21.66130789740241     7.98585840000000