CRYSTAL
PRIMVEC
 23.49188813626513 -24.27546308358010 0.00000000000000
 -33.20615823359915 2.94672939069314 0.00000000000000
 0.00000000000000 0.00000000000000 19.57178440000000
PRIMCOORD
 492 1
 16   -28.50412918565361    -1.55141565837021    -1.58592600000000
 16   -28.50412918565361    -1.55141565837021     1.58592600000000
 42   -31.63273499085695     2.04172516665188     0.00000000000000
 16   -30.05930627372089     1.13725609638521    -1.58592600000000
 16   -30.05930627372089     1.13725609638521     1.58592600000000
 16   -20.67349980689857    -9.64323668623024    -1.58592600000000
 16   -20.67349980689857    -9.64323668623024     1.58592600000000
 42   -23.80210561210190    -6.05009586120815     0.00000000000000
 16   -22.22867689496585    -6.95456493147482    -1.58592600000000
 16   -22.22867689496585    -6.95456493147482     1.58592600000000
 42   -25.35728270016919    -3.36142410645273     0.00000000000000
 16   -23.78385398303314    -4.26589317671940    -1.58592600000000
 16   -23.78385398303314    -4.26589317671940     1.58592600000000
 42   -26.91245978823647    -0.67275235169731     0.00000000000000
 16   -25.33903107110042    -1.57722142196398    -1.58592600000000
 16   -25.33903107110042    -1.57722142196398     1.58592600000000
 42   -28.46763687630376     2.01591940305811     0.00000000000000
 16   -26.89420815916770     1.11145033279144    -1.58592600000000
 16   -26.89420815916770     1.11145033279144     1.58592600000000
 16   -12.84287042814352   -17.73505771409027    -1.58592600000000
 16   -12.84287042814352   -17.73505771409027     1.58592600000000
 42   -15.97147623334686   -14.14191688906818     0.00000000000000
 16   -14.39804751621081   -15.04638595933486    -1.58592600000000
 16   -14.39804751621081   -15.04638595933486     1.58592600000000
 42   -17.52665332141414   -11.45324513431276     0.00000000000000
 16   -15.95322460427809   -12.35771420457943    -1.58592600000000
 16   -15.95322460427809   -12.35771420457943     1.58592600000000
 42   -19.08183040948143    -8.76457337955734     0.00000000000000
 16   -17.50840169234538    -9.66904244982401    -1.58592600000000
 16   -17.50840169234538    -9.66904244982401     1.58592600000000
 42   -20.63700749754872    -6.07590162480192     0.00000000000000
 16   -19.06357878041267    -6.98037069506860    -1.58592600000000
 16   -19.06357878041267    -6.98037069506860     1.58592600000000
 42   -22.19218458561600    -3.38722987004650     0.00000000000000
 16   -20.61875586847995    -4.29169894031317    -1.58592600000000
 16   -20.61875586847995    -4.29169894031317     1.58592600000000
 42   -23.74736167368329    -0.69855811529108     0.00000000000000
 16   -22.17393295654723    -1.60302718555775    -1.58592600000000
 16   -22.17393295654723    -1.60302718555775     1.58592600000000
 42   -25.30253876175057     1.99011363946434     0.00000000000000
 16   -23.72911004461452     1.08564456919767    -1.58592600000000
 16   -23.72911004461452     1.08564456919767     1.58592600000000
 42    -9.69602394265910   -19.54506616217280     0.00000000000000
 16    -8.12259522552305   -20.44953523243947    -1.58592600000000
 16    -8.12259522552305   -20.44953523243947     1.58592600000000
 42   -11.25120103072639   -16.85639440741738     0.00000000000000
 16    -9.67777231359034   -17.76086347768405    -1.58592600000000
 16    -9.67777231359034   -17.76086347768405     1.58592600000000
 42   -12.80637811879367   -14.16772265266196     0.00000000000000
 16   -11.23294940165762   -15.07219172292863    -1.58592600000000
 16   -11.23294940165762   -15.07219172292863     1.58592600000000
 42   -14.36155520686096   -11.47905089790654     0.00000000000000
 16   -12.78812648972491   -12.38351996817321    -1.58592600000000
 16   -12.78812648972491   -12.38351996817321     1.58592600000000
 42   -15.91673229492825    -8.79037914315111     0.00000000000000
 16   -14.34330357779219    -9.69484821341779    -1.58592600000000
 16   -14.34330357779219    -9.69484821341779     1.58592600000000
 42   -17.47190938299553    -6.10170738839570     0.00000000000000
 16   -15.89848066585948    -7.00617645866237    -1.58592600000000
 16   -15.89848066585948    -7.00617645866237     1.58592600000000
 42   -19.02708647106282    -3.41303563364028     0.00000000000000
 16   -17.45365775392676    -4.31750470390695    -1.58592600000000
 16   -17.45365775392676    -4.31750470390695     1.58592600000000
 42   -20.58226355913009    -0.72436387888485     0.00000000000000
 16   -19.00883484199404    -1.62883294915153    -1.58592600000000
 16   -19.00883484199404    -1.62883294915153     1.58592600000000
 42   -22.13744064719739     1.96430787587057     0.00000000000000
 16   -20.56401193006133     1.05983880560390    -1.58592600000000
 16   -20.56401193006133     1.05983880560390     1.58592600000000
 42    -6.53092582810592   -19.57087192576657     0.00000000000000
 16    -4.95749711096987   -20.47534099603324    -1.58592600000000
 16    -4.95749711096987   -20.47534099603324     1.58592600000000
 42    -8.08610291617320   -16.88220017101115     0.00000000000000
 16    -6.51267419903715   -17.78666924127782    -1.58592600000000
 16    -6.51267419903715   -17.78666924127782     1.58592600000000
 42    -9.64128000424049   -14.19352841625573     0.00000000000000
 16    -8.06785128710444   -15.09799748652240    -1.58592600000000
 16    -8.06785128710444   -15.09799748652240     1.58592600000000
 42   -11.19645709230777   -11.50485666150031     0.00000000000000
 16    -9.62302837517172   -12.40932573176698    -1.58592600000000
 16    -9.62302837517172   -12.40932573176698     1.58592600000000
 42   -12.75163418037506    -8.81618490674489     0.00000000000000
 16   -11.17820546323900    -9.72065397701156    -1.58592600000000
 16   -11.17820546323900    -9.72065397701156     1.58592600000000
 42   -14.30681126844234    -6.12751315198947     0.00000000000000
 16   -12.73338255130629    -7.03198222225614    -1.58592600000000
 16   -12.73338255130629    -7.03198222225614     1.58592600000000
 42   -15.86198835650963    -3.43884139723405     0.00000000000000
 16   -14.28855963937357    -4.34331046750072    -1.58592600000000
 16   -14.28855963937357    -4.34331046750072     1.58592600000000
 42   -17.41716544457691    -0.75016964247863     0.00000000000000
 16   -15.84373672744086    -1.65463871274530    -1.58592600000000
 16   -15.84373672744086    -1.65463871274530     1.58592600000000
 16   -17.39891381550814     1.03403304201012    -1.58592600000000
 16   -17.39891381550814     1.03403304201012     1.58592600000000
 42    -3.36582771355273   -19.59667768936034     0.00000000000000
 16    -1.79239899641668   -20.50114675962701    -1.58592600000000
 16    -1.79239899641668   -20.50114675962701     1.58592600000000
 42    -4.92100480162002   -16.90800593460492     0.00000000000000
 16    -3.34757608448396   -17.81247500487159    -1.58592600000000
 16    -3.34757608448396   -17.81247500487159     1.58592600000000
 42    -6.47618188968730   -14.21933417984950     0.00000000000000
 16    -4.90275317255125   -15.12380325011617    -1.58592600000000
 16    -4.90275317255125   -15.12380325011617     1.58592600000000
 42    -8.03135897775459   -11.53066242509408     0.00000000000000
 16    -6.45793026061853   -12.43513149536075    -1.58592600000000
 16    -6.45793026061853   -12.43513149536075     1.58592600000000
 42    -9.58653606582187    -8.84199067033866     0.00000000000000
 16    -8.01310734868582    -9.74645974060533    -1.58592600000000
 16    -8.01310734868582    -9.74645974060533     1.58592600000000
 42   -11.14171315388916    -6.15331891558324     0.00000000000000
 16    -9.56828443675310    -7.05778798584991    -1.58592600000000
 16    -9.56828443675310    -7.05778798584991     1.58592600000000
 42   -12.69689024195644    -3.46464716082782     0.00000000000000
 16   -11.12346152482039    -4.36911623109449    -1.58592600000000
 16   -11.12346152482039    -4.36911623109449     1.58592600000000
 42   -14.25206733002373    -0.77597540607240     0.00000000000000
 16   -12.67863861288767    -1.68044447633907    -1.58592600000000
 16   -12.67863861288767    -1.68044447633907     1.58592600000000
 16   -14.23381570095496     1.00822727841635    -1.58592600000000
 16   -14.23381570095496     1.00822727841635     1.58592600000000
 42    -0.20072959899954   -19.62248345295411     0.00000000000000
 16     1.37269911813651   -20.52695252322079    -1.58592600000000
 16     1.37269911813651   -20.52695252322079     1.58592600000000
 42    -1.75590668706683   -16.93381169819870     0.00000000000000
 16    -0.18247796993078   -17.83828076846536    -1.58592600000000
 16    -0.18247796993078   -17.83828076846536     1.58592600000000
 42    -3.31108377513411   -14.24513994344327     0.00000000000000
 16    -1.73765505799806   -15.14960901370995    -1.58592600000000
 16    -1.73765505799806   -15.14960901370995     1.58592600000000
 42    -4.86626086320140   -11.55646818868785     0.00000000000000
 16    -3.29283214606534   -12.46093725895452    -1.58592600000000
 16    -3.29283214606534   -12.46093725895452     1.58592600000000
 42    -6.42143795126868    -8.86779643393243     0.00000000000000
 16    -4.84800923413263    -9.77226550419910    -1.58592600000000
 16    -4.84800923413263    -9.77226550419910     1.58592600000000
 42    -7.97661503933597    -6.17912467917701     0.00000000000000
 16    -6.40318632219991    -7.08359374944369    -1.58592600000000
 16    -6.40318632219991    -7.08359374944369     1.58592600000000
 42    -9.53179212740325    -3.49045292442159     0.00000000000000
 16    -7.95836341026720    -4.39492199468826    -1.58592600000000
 16    -7.95836341026720    -4.39492199468826     1.58592600000000
 42   -11.08696921547054    -0.80178116966617     0.00000000000000
 16    -9.51354049833448    -1.70625023993284    -1.58592600000000
 16    -9.51354049833448    -1.70625023993284     1.58592600000000
 16   -11.06871758640177     0.98242151482258    -1.58592600000000
 16   -11.06871758640177     0.98242151482258     1.58592600000000
 42     4.51954560362093   -22.33696097130331     0.00000000000000
 42     2.96436851555364   -19.64828921654789     0.00000000000000
 16     4.53779723268970   -20.55275828681456    -1.58592600000000
 16     4.53779723268970   -20.55275828681456     1.58592600000000
 42     1.40919142748636   -16.95961746179247     0.00000000000000
 16     2.98262014462241   -17.86408653205914    -1.58592600000000
 16     2.98262014462241   -17.86408653205914     1.58592600000000
 42    -0.14598566058093   -14.27094570703705     0.00000000000000
 16     1.42744305655512   -15.17541477730372    -1.58592600000000
 16     1.42744305655512   -15.17541477730372     1.58592600000000
 42    -1.70116274864821   -11.58227395228162     0.00000000000000
 16    -0.12773403151216   -12.48674302254830    -1.58592600000000
 16    -0.12773403151216   -12.48674302254830     1.58592600000000
 42    -3.25633983671550    -8.89360219752620     0.00000000000000
 16    -1.68291111957944    -9.79807126779287    -1.58592600000000
 16    -1.68291111957944    -9.79807126779287     1.58592600000000
 42    -4.81151692478278    -6.20493044277079     0.00000000000000
 16    -3.23808820764673    -7.10939951303746    -1.58592600000000
 16    -3.23808820764673    -7.10939951303746     1.58592600000000
 42    -6.36669401285006    -3.51625868801537     0.00000000000000
 16    -4.79326529571401    -4.42072775828204    -1.58592600000000
 16    -4.79326529571401    -4.42072775828204     1.58592600000000
 42    -7.92187110091735    -0.82758693325994     0.00000000000000
 16    -6.34844238378130    -1.73205600352662    -1.58592600000000
 16    -6.34844238378130    -1.73205600352662     1.58592600000000
 42     7.68464371817412   -22.36276673489708     0.00000000000000
 42     6.12946663010683   -19.67409498014166     0.00000000000000
 16     7.70289534724288   -20.57856405040833    -1.58592600000000
 16     7.70289534724288   -20.57856405040833     1.58592600000000
 42     4.57428954203955   -16.98542322538624     0.00000000000000
 16     6.14771825917560   -17.88989229565291    -1.58592600000000
 16     6.14771825917560   -17.88989229565291     1.58592600000000
 42     3.01911245397226   -14.29675147063082     0.00000000000000
 16     4.59254117110831   -15.20122054089749    -1.58592600000000
 16     4.59254117110831   -15.20122054089749     1.58592600000000
 42     1.46393536590497   -11.60807971587540     0.00000000000000
 16     3.03736408304103   -12.51254878614207    -1.58592600000000
 16     3.03736408304103   -12.51254878614207     1.58592600000000
 42    -0.09124172216231    -8.91940796111998     0.00000000000000
 16     1.48218699497374    -9.82387703138665    -1.58592600000000
 16     1.48218699497374    -9.82387703138665     1.58592600000000
 42    -1.64641881022959    -6.23073620636456     0.00000000000000
 16    -0.07299009309354    -7.13520527663123    -1.58592600000000
 16    -0.07299009309354    -7.13520527663123     1.58592600000000
 42    -3.20159589829688    -3.54206445160914     0.00000000000000
 16    -1.62816718116083    -4.44653352187581    -1.58592600000000
 16    -1.62816718116083    -4.44653352187581     1.58592600000000
 42    -4.75677298636416    -0.85339269685372     0.00000000000000
 16    -3.18334426922811    -1.75786176712039    -1.58592600000000
 16    -3.18334426922811    -1.75786176712039     1.58592600000000
 42    10.84974183272730   -22.38857249849085     0.00000000000000
 42     9.29456474466002   -19.69990074373543     0.00000000000000
 16    10.86799346179607   -20.60436981400210    -1.58592600000000
 16    10.86799346179607   -20.60436981400210     1.58592600000000
 42     7.73938765659273   -17.01122898898001     0.00000000000000
 16     9.31281637372878   -17.91569805924668    -1.58592600000000
 16     9.31281637372878   -17.91569805924668     1.58592600000000
 42     6.18421056852545   -14.32255723422459     0.00000000000000
 16     7.75763928566150   -15.22702630449126    -1.58592600000000
 16     7.75763928566150   -15.22702630449126     1.58592600000000
 42     4.62903348045816   -11.63388547946917     0.00000000000000
 16     6.20246219759421   -12.53835454973584    -1.58592600000000
 16     6.20246219759421   -12.53835454973584     1.58592600000000
 42     3.07385639239088    -8.94521372471375     0.00000000000000
 16     4.64728510952693    -9.84968279498042    -1.58592600000000
 16     4.64728510952693    -9.84968279498042     1.58592600000000
 42     1.51867930432359    -6.25654196995833     0.00000000000000
 16     3.09210802145964    -7.16101104022500    -1.58592600000000
 16     3.09210802145964    -7.16101104022500     1.58592600000000
 42    -0.03649778374369    -3.56787021520291     0.00000000000000
 16     1.53693093339236    -4.47233928546958    -1.58592600000000
 16     1.53693093339236    -4.47233928546958     1.58592600000000
 42    -1.59167487181098    -0.87919846044749     0.00000000000000
 16    -0.01824615467492    -1.78366753071416    -1.58592600000000
 16    -0.01824615467492    -1.78366753071416     1.58592600000000
 42    14.01483994728049   -22.41437826208463     0.00000000000000
 16    15.58826866441654   -23.31884733235130    -1.58592600000000
 16    15.58826866441654   -23.31884733235130     1.58592600000000
 42    12.45966285921320   -19.72570650732920     0.00000000000000
 16    14.03309157634925   -20.63017557759587    -1.58592600000000
 16    14.03309157634925   -20.63017557759587     1.58592600000000
 42    10.90448577114592   -17.03703475257378     0.00000000000000
 16    12.47791448828197   -17.94150382284045    -1.58592600000000
 16    12.47791448828197   -17.94150382284045     1.58592600000000
 42     9.34930868307863   -14.34836299781836     0.00000000000000
 16    10.92273740021468   -15.25283206808503    -1.58592600000000
 16    10.92273740021468   -15.25283206808503     1.58592600000000
 42     7.79413159501135   -11.65969124306294     0.00000000000000
 16     9.36756031214740   -12.56416031332961    -1.58592600000000
 16     9.36756031214740   -12.56416031332961     1.58592600000000
 42     6.23895450694406    -8.97101948830752     0.00000000000000
 16     7.81238322408011    -9.87548855857419    -1.58592600000000
 16     7.81238322408011    -9.87548855857419     1.58592600000000
 42     4.68377741887678    -6.28234773355210     0.00000000000000
 16     6.25720613601283    -7.18681680381877    -1.58592600000000
 16     6.25720613601283    -7.18681680381877     1.58592600000000
 42     3.12860033080949    -3.59367597879668     0.00000000000000
 42    17.17993806183367   -22.44018402567840     0.00000000000000
 16    18.75336677896973   -23.34465309594507    -1.58592600000000
 16    18.75336677896973   -23.34465309594507     1.58592600000000
 42    15.62476097376639   -19.75151227092298     0.00000000000000
 16    17.19818969090245   -20.65598134118965    -1.58592600000000
 16    17.19818969090245   -20.65598134118965     1.58592600000000
 42    14.06958388569910   -17.06284051616756     0.00000000000000
 16    15.64301260283516   -17.96730958643423    -1.58592600000000
 16    15.64301260283516   -17.96730958643423     1.58592600000000
 42    12.51440679763182   -14.37416876141214     0.00000000000000
 16    14.08783551476787   -15.27863783167881    -1.58592600000000
 16    14.08783551476787   -15.27863783167881     1.58592600000000
 42    10.95922970956453   -11.68549700665671     0.00000000000000
 42    20.34503617638687   -22.46598978927217     0.00000000000000
 16    21.91846489352292   -23.37045885953884    -1.58592600000000
 16    21.91846489352292   -23.37045885953884     1.58592600000000
 42    18.78985908831958   -19.77731803451675     0.00000000000000
 34   -26.00331453679111    -4.22461358890371     4.64114160000000
 34   -26.00331453679111    -4.22461358890371     7.98585840000000
 42   -29.60471160746417    -0.63923248987125     6.31350000000000
 34   -27.88662202717017    -1.46376022564612     4.64114160000000
 34   -27.88662202717017    -1.46376022564612     7.98585840000000
 42   -31.48801909784323     2.12162087338634     6.31350000000000
 34   -29.76992951754924     1.29709313761148     4.64114160000000
 34   -29.76992951754924     1.29709313761148     7.98585840000000
 34   -15.19902421384808   -14.98191844906496     4.64114160000000
 34   -15.19902421384808   -14.98191844906496     7.98585840000000
 42   -18.80042128452113   -11.39653735003250     6.31350000000000
 34   -17.08233170422714   -12.22106508580737     4.64114160000000
 34   -17.08233170422714   -12.22106508580737     7.98585840000000
 42   -20.68372877490020    -8.63568398677491     6.31350000000000
 34   -18.96563919460620    -9.46021172254978     4.64114160000000
 34   -18.96563919460620    -9.46021172254978     7.98585840000000
 42   -22.56703626527926    -5.87483062351732     6.31350000000000
 34   -20.84894668498526    -6.69935835929218     4.64114160000000
 34   -20.84894668498526    -6.69935835929218     7.98585840000000
 42   -24.45034375565832    -3.11397726025973     6.31350000000000
 34   -22.73225417536433    -3.93850499603459     4.64114160000000
 34   -22.73225417536433    -3.93850499603459     7.98585840000000
 42   -26.33365124603739    -0.35312389700213     6.31350000000000
 34   -24.61556166574339    -1.17765163277700     4.64114160000000
 34   -24.61556166574339    -1.17765163277700     7.98585840000000
 42   -28.21695873641645     2.40772946625546     6.31350000000000
 34   -26.49886915612246     1.58320173048059     4.64114160000000
 34   -26.49886915612246     1.58320173048059     7.98585840000000
 42    -9.87943845195717   -19.39298884693616     6.31350000000000
 34    -8.16134887166317   -20.21751658271103     4.64114160000000
 34    -8.16134887166317   -20.21751658271103     7.98585840000000
 42   -11.76274594233623   -16.63213548367857     6.31350000000000
 34   -10.04465636204223   -17.45666321945344     4.64114160000000
 34   -10.04465636204223   -17.45666321945344     7.98585840000000
 42   -13.64605343271529   -13.87128212042098     6.31350000000000
 34   -11.92796385242130   -14.69580985619585     4.64114160000000
 34   -11.92796385242130   -14.69580985619585     7.98585840000000
 42   -15.52936092309435   -11.11042875716339     6.31350000000000
 34   -13.81127134280036   -11.93495649293825     4.64114160000000
 34   -13.81127134280036   -11.93495649293825     7.98585840000000
 42   -17.41266841347342    -8.34957539390580     6.31350000000000
 34   -15.69457883317942    -9.17410312968066     4.64114160000000
 34   -15.69457883317942    -9.17410312968066     7.98585840000000
 42   -19.29597590385248    -5.58872203064820     6.31350000000000
 34   -17.57788632355848    -6.41324976642307     4.64114160000000
 34   -17.57788632355848    -6.41324976642307     7.98585840000000
 42   -21.17928339423154    -2.82786866739061     6.31350000000000
 34   -19.46119381393755    -3.65239640316548     4.64114160000000
 34   -19.46119381393755    -3.65239640316548     7.98585840000000
 42   -23.06259088461060    -0.06701530413302     6.31350000000000
 34   -21.34450130431661    -0.89154303990789     4.64114160000000
 34   -21.34450130431661    -0.89154303990789     7.98585840000000
 34   -23.22780879469567     1.86931032334971     4.64114160000000
 34   -23.22780879469567     1.86931032334971     7.98585840000000
 42    -6.60837809053038   -19.10688025406704     6.31350000000000
 34    -4.89028851023639   -19.93140798984191     4.64114160000000
 34    -4.89028851023639   -19.93140798984191     7.98585840000000
 42    -8.49168558090945   -16.34602689080945     6.31350000000000
 34    -6.77359600061545   -17.17055462658432     4.64114160000000
 34    -6.77359600061545   -17.17055462658432     7.98585840000000
 42   -10.37499307128851   -13.58517352755186     6.31350000000000
 34    -8.65690349099452   -14.40970126332673     4.64114160000000
 34    -8.65690349099452   -14.40970126332673     7.98585840000000
 42   -12.25830056166757   -10.82432016429427     6.31350000000000
 34   -10.54021098137358   -11.64884790006914     4.64114160000000
 34   -10.54021098137358   -11.64884790006914     7.98585840000000
 42   -14.14160805204664    -8.06346680103668     6.31350000000000
 34   -12.42351847175264    -8.88799453681155     4.64114160000000
 34   -12.42351847175264    -8.88799453681155     7.98585840000000
 42   -16.02491554242570    -5.30261343777909     6.31350000000000
 34   -14.30682596213171    -6.12714117355395     4.64114160000000
 34   -14.30682596213171    -6.12714117355395     7.98585840000000
 42   -17.90822303280476    -2.54176007452149     6.31350000000000
 34   -16.19013345251077    -3.36628781029636     4.64114160000000
 34   -16.19013345251077    -3.36628781029636     7.98585840000000
 42   -19.79153052318383     0.21909328873609     6.31350000000000
 34   -18.07344094288983    -0.60543444703877     4.64114160000000
 34   -18.07344094288983    -0.60543444703877     7.98585840000000
 42    -1.45401023872454   -21.58162502445553     6.31350000000000
 42    -3.33731772910360   -18.82077166119793     6.31350000000000
 34    -1.61922814880961   -19.64529939697280     4.64114160000000
 34    -1.61922814880961   -19.64529939697280     7.98585840000000
 42    -5.22062521948267   -16.05991829794034     6.31350000000000
 34    -3.50253563918867   -16.88444603371521     4.64114160000000
 34    -3.50253563918867   -16.88444603371521     7.98585840000000
 42    -7.10393270986173   -13.29906493468275     6.31350000000000
 34    -5.38584312956774   -14.12359267045762     4.64114160000000
 34    -5.38584312956774   -14.12359267045762     7.98585840000000
 42    -8.98724020024079   -10.53821157142515     6.31350000000000
 34    -7.26915061994680   -11.36273930720002     4.64114160000000
 34    -7.26915061994680   -11.36273930720002     7.98585840000000
 42   -10.87054769061985    -7.77735820816757     6.31350000000000
 34    -9.15245811032586    -8.60188594394243     4.64114160000000
 34    -9.15245811032586    -8.60188594394243     7.98585840000000
 42   -12.75385518099892    -5.01650484490998     6.31350000000000
 34   -11.03576560070492    -5.84103258068484     4.64114160000000
 34   -11.03576560070492    -5.84103258068484     7.98585840000000
 42   -14.63716267137798    -2.25565148165238     6.31350000000000
 34   -12.91907309108399    -3.08017921742725     4.64114160000000
 34   -12.91907309108399    -3.08017921742725     7.98585840000000
 42   -16.52047016175704     0.50520188160521     6.31350000000000
 34   -14.80238058146305    -0.31932585416966     4.64114160000000
 34   -14.80238058146305    -0.31932585416966     7.98585840000000
 42     1.81705012270224   -21.29551643158641     6.31350000000000
 34     3.53513970299623   -22.12004416736128     4.64114160000000
 34     3.53513970299623   -22.12004416736128     7.98585840000000
 42    -0.06625736767682   -18.53466306832882     6.31350000000000
 34     1.65183221261717   -19.35919080410368     4.64114160000000
 34     1.65183221261717   -19.35919080410368     7.98585840000000
 42    -1.94956485805589   -15.77380970507122     6.31350000000000
 34    -0.23147527776189   -16.59833744084609     4.64114160000000
 34    -0.23147527776189   -16.59833744084609     7.98585840000000
 42    -3.83287234843495   -13.01295634181363     6.31350000000000
 34    -2.11478276814096   -13.83748407758850     4.64114160000000
 34    -2.11478276814096   -13.83748407758850     7.98585840000000
 42    -5.71617983881401   -10.25210297855604     6.31350000000000
 34    -3.99809025852002   -11.07663071433091     4.64114160000000
 34    -3.99809025852002   -11.07663071433091     7.98585840000000
 42    -7.59948732919307    -7.49124961529845     6.31350000000000
 34    -5.88139774889908    -8.31577735107332     4.64114160000000
 34    -5.88139774889908    -8.31577735107332     7.98585840000000
 42    -9.48279481957214    -4.73039625204086     6.31350000000000
 34    -7.76470523927814    -5.55492398781572     4.64114160000000
 34    -7.76470523927814    -5.55492398781572     7.98585840000000
 42   -11.36610230995120    -1.96954288878327     6.31350000000000
 34    -9.64801272965721    -2.79407062455813     4.64114160000000
 34    -9.64801272965721    -2.79407062455813     7.98585840000000
 42   -13.24940980033026     0.79131047447433     6.31350000000000
 34   -11.53132022003627    -0.03321726130054     4.64114160000000
 34   -11.53132022003627    -0.03321726130054     7.98585840000000
 42     5.08811048412902   -21.00940783871729     6.31350000000000
 34     6.80620006442301   -21.83393557449216     4.64114160000000
 34     6.80620006442301   -21.83393557449216     7.98585840000000
 42     3.20480299374996   -18.24855447545970     6.31350000000000
 34     4.92289257404395   -19.07308221123457     4.64114160000000
 34     4.92289257404395   -19.07308221123457     7.98585840000000
 42     1.32149550337090   -15.48770111220211     6.31350000000000
 34     3.03958508366489   -16.31222884797698     4.64114160000000
 34     3.03958508366489   -16.31222884797698     7.98585840000000
 42    -0.56181198700817   -12.72684774894452     6.31350000000000
 34     1.15627759328582   -13.55137548471939     4.64114160000000
 34     1.15627759328582   -13.55137548471939     7.98585840000000
 42    -2.44511947738723    -9.96599438568692     6.31350000000000
 34    -0.72702989709324   -10.79052212146179     4.64114160000000
 34    -0.72702989709324   -10.79052212146179     7.98585840000000
 42    -4.32842696776629    -7.20514102242933     6.31350000000000
 34    -2.61033738747230    -8.02966875820420     4.64114160000000
 34    -2.61033738747230    -8.02966875820420     7.98585840000000
 42    -6.21173445814536    -4.44428765917174     6.31350000000000
 34    -4.49364487785136    -5.26881539494661     4.64114160000000
 34    -4.49364487785136    -5.26881539494661     7.98585840000000
 42    -8.09504194852442    -1.68343429591415     6.31350000000000
 34    -6.37695236823043    -2.50796203168901     4.64114160000000
 34    -6.37695236823043    -2.50796203168901     7.98585840000000
 34    -8.26025985860949     0.25289133156858     4.64114160000000
 34    -8.26025985860949     0.25289133156858     7.98585840000000
 42     8.35917084555580   -20.72329924584818     6.31350000000000
 34    10.07726042584980   -21.54782698162305     4.64114160000000
 34    10.07726042584980   -21.54782698162305     7.98585840000000
 42     6.47586335517674   -17.96244588259059     6.31350000000000
 34     8.19395293547073   -18.78697361836545     4.64114160000000
 34     8.19395293547073   -18.78697361836545     7.98585840000000
 42     4.59255586479768   -15.20159251933299     6.31350000000000
 34     6.31064544509167   -16.02612025510786     4.64114160000000
 34     6.31064544509167   -16.02612025510786     7.98585840000000
 42     2.70924837441861   -12.44073915607540     6.31350000000000
 34     4.42733795471261   -13.26526689185027     4.64114160000000
 34     4.42733795471261   -13.26526689185027     7.98585840000000
 42     0.82594088403955    -9.67988579281781     6.31350000000000
 34     2.54403046433355   -10.50441352859267     4.64114160000000
 34     2.54403046433355   -10.50441352859267     7.98585840000000
 42    -1.05736660633951    -6.91903242956022     6.31350000000000
 34     0.66072297395448    -7.74356016533509     4.64114160000000
 34     0.66072297395448    -7.74356016533509     7.98585840000000
 42    -2.94067409671857    -4.15817906630262     6.31350000000000
 34    -1.22258451642458    -4.98270680207749     4.64114160000000
 34    -1.22258451642458    -4.98270680207749     7.98585840000000
 42    -4.82398158709764    -1.39732570304503     6.31350000000000
 34    -3.10589200680364    -2.22185343881990     4.64114160000000
 34    -3.10589200680364    -2.22185343881990     7.98585840000000
 42    13.51353869736165   -23.19804401623665     6.31350000000000
 42    11.63023120698258   -20.43719065297906     6.31350000000000
 34    13.34832078727658   -21.26171838875393     4.64114160000000