CRYSTAL
PRIMVEC
 20.31425671427972 -24.36664232725649 0.00000000000000
 -33.21156636807133 2.88872240722731 0.00000000000000
 0.00000000000000 0.00000000000000 19.57178440000000
PRIMCOORD
 501 1
 16   -26.95802215766551    -4.33221748569202    -1.58592600000000
 16   -26.95802215766551    -4.33221748569202     1.58592600000000
 42   -30.08479718955694    -0.72201694042416     0.00000000000000
 16   -28.51165209410476    -1.62893363957713    -1.58592600000000
 16   -28.51165209410476    -1.62893363957713     1.58592600000000
 42   -31.63842712599619     1.98126690569073     0.00000000000000
 16   -30.06528203054402     1.07435020653776    -1.58592600000000
 16   -30.06528203054402     1.07435020653776     1.58592600000000
 16   -17.57770876874527   -15.16389672626282    -1.58592600000000
 16   -17.57770876874527   -15.16389672626282     1.58592600000000
 42   -20.70448380063671   -11.55369618099496     0.00000000000000
 16   -19.13133870518453   -12.46061288014793    -1.58592600000000
 16   -19.13133870518453   -12.46061288014793     1.58592600000000
 42   -22.25811373707596    -8.85041233488007     0.00000000000000
 16   -20.68496864162379    -9.75732903403304    -1.58592600000000
 16   -20.68496864162379    -9.75732903403304     1.58592600000000
 42   -23.81174367351522    -6.14712848876518     0.00000000000000
 16   -22.23859857806304    -7.05404518791815    -1.58592600000000
 16   -22.23859857806304    -7.05404518791815     1.58592600000000
 42   -25.36537360995447    -3.44384464265029     0.00000000000000
 16   -23.79222851450230    -4.35076134180326    -1.58592600000000
 16   -23.79222851450230    -4.35076134180326     1.58592600000000
 42   -26.91900354639373    -0.74056079653540     0.00000000000000
 16   -25.34585845094156    -1.64747749568837    -1.58592600000000
 16   -25.34585845094156    -1.64747749568837     1.58592600000000
 42   -28.47263348283299     1.96272304957949     0.00000000000000
 16   -26.89948838738081     1.05580635042652    -1.58592600000000
 16   -26.89948838738081     1.05580635042652     1.58592600000000
 42   -12.87780034815573   -19.68209157545087     0.00000000000000
 16   -11.30465525270356   -20.58900827460384    -1.58592600000000
 16   -11.30465525270356   -20.58900827460384     1.58592600000000
 42   -14.43143028459499   -16.97880772933598     0.00000000000000
 16   -12.85828518914281   -17.88572442848895    -1.58592600000000
 16   -12.85828518914281   -17.88572442848895     1.58592600000000
 42   -15.98506022103424   -14.27552388322109     0.00000000000000
 16   -14.41191512558207   -15.18244058237407    -1.58592600000000
 16   -14.41191512558207   -15.18244058237407     1.58592600000000
 42   -17.53869015747350   -11.57224003710620     0.00000000000000
 16   -15.96554506202132   -12.47915673625917    -1.58592600000000
 16   -15.96554506202132   -12.47915673625917     1.58592600000000
 42   -19.09232009391275    -8.86895619099131     0.00000000000000
 16   -17.51917499846058    -9.77587289014428    -1.58592600000000
 16   -17.51917499846058    -9.77587289014428     1.58592600000000
 42   -20.64595003035201    -6.16567234487642     0.00000000000000
 16   -19.07280493489984    -7.07258904402939    -1.58592600000000
 16   -19.07280493489984    -7.07258904402939     1.58592600000000
 42   -22.19957996679127    -3.46238849876153     0.00000000000000
 16   -20.62643487133909    -4.36930519791450    -1.58592600000000
 16   -20.62643487133909    -4.36930519791450     1.58592600000000
 42   -23.75320990323052    -0.75910465264664     0.00000000000000
 16   -22.18006480777835    -1.66602135179961    -1.58592600000000
 16   -22.18006480777835    -1.66602135179961     1.58592600000000
 42   -25.30683983966978     1.94417919346825     0.00000000000000
 16   -23.73369474421760     1.03726249431528    -1.58592600000000
 16   -23.73369474421760     1.03726249431528     1.58592600000000
 42    -9.71200670499252   -19.70063543156211     0.00000000000000
 16    -8.13886160954035   -20.60755213071509    -1.58592600000000
 16    -8.13886160954035   -20.60755213071509     1.58592600000000
 42   -11.26563664143178   -16.99735158544723     0.00000000000000
 16    -9.69249154597960   -17.90426828460019    -1.58592600000000
 16    -9.69249154597960   -17.90426828460019     1.58592600000000
 42   -12.81926657787103   -14.29406773933233     0.00000000000000
 16   -11.24612148241886   -15.20098443848531    -1.58592600000000
 16   -11.24612148241886   -15.20098443848531     1.58592600000000
 42   -14.37289651431029   -11.59078389321744     0.00000000000000
 16   -12.79975141885811   -12.49770059237041    -1.58592600000000
 16   -12.79975141885811   -12.49770059237041     1.58592600000000
 42   -15.92652645074955    -8.88750004710255     0.00000000000000
 16   -14.35338135529737    -9.79441674625552    -1.58592600000000
 16   -14.35338135529737    -9.79441674625552     1.58592600000000
 42   -17.48015638718880    -6.18421620098767     0.00000000000000
 16   -15.90701129173663    -7.09113290014064    -1.58592600000000
 16   -15.90701129173663    -7.09113290014064     1.58592600000000
 42   -19.03378632362806    -3.48093235487278     0.00000000000000
 16   -17.46064122817588    -4.38784905402575    -1.58592600000000
 16   -17.46064122817588    -4.38784905402575     1.58592600000000
 42   -20.58741626006731    -0.77764850875788     0.00000000000000
 16   -19.01427116461514    -1.68456520791086    -1.58592600000000
 16   -19.01427116461514    -1.68456520791086     1.58592600000000
 42   -22.14104619650657     1.92563533735701     0.00000000000000
 16   -20.56790110105439     1.01871863820404    -1.58592600000000
 16   -20.56790110105439     1.01871863820404     1.58592600000000
 42    -6.54621306182931   -19.71917928767336     0.00000000000000
 16    -4.97306796637714   -20.62609598682632    -1.58592600000000
 16    -4.97306796637714   -20.62609598682632     1.58592600000000
 42    -8.09984299826857   -17.01589544155847     0.00000000000000
 16    -6.52669790281639   -17.92281214071144    -1.58592600000000
 16    -6.52669790281639   -17.92281214071144     1.58592600000000
 42    -9.65347293470783   -14.31261159544358     0.00000000000000
 16    -8.08032783925565   -15.21952829459655    -1.58592600000000
 16    -8.08032783925565   -15.21952829459655     1.58592600000000
 42   -11.20710287114708   -11.60932774932869     0.00000000000000
 16    -9.63395777569491   -12.51624444848166    -1.58592600000000
 16    -9.63395777569491   -12.51624444848166     1.58592600000000
 42   -12.76073280758634    -8.90604390321380     0.00000000000000
 16   -11.18758771213416    -9.81296060236677    -1.58592600000000
 16   -11.18758771213416    -9.81296060236677     1.58592600000000
 42   -14.31436274402559    -6.20276005709891     0.00000000000000
 16   -12.74121764857342    -7.10967675625188    -1.58592600000000
 16   -12.74121764857342    -7.10967675625188     1.58592600000000
 42   -15.86799268046485    -3.49947621098402     0.00000000000000
 16   -14.29484758501267    -4.40639291013699    -1.58592600000000
 16   -14.29484758501267    -4.40639291013699     1.58592600000000
 42   -17.42162261690411    -0.79619236486913     0.00000000000000
 16   -15.84847752145193    -1.70310906402210    -1.58592600000000
 16   -15.84847752145193    -1.70310906402210     1.58592600000000
 16   -17.40210745789119     1.00017478209279    -1.58592600000000
 16   -17.40210745789119     1.00017478209279     1.58592600000000
 42    -3.38041941866611   -19.73772314378460     0.00000000000000
 16    -1.80727432321393   -20.64463984293757    -1.58592600000000
 16    -1.80727432321393   -20.64463984293757     1.58592600000000
 42    -4.93404935510536   -17.03443929766971     0.00000000000000
 16    -3.36090425965319   -17.94135599682268    -1.58592600000000
 16    -3.36090425965319   -17.94135599682268     1.58592600000000
 42    -6.48767929154462   -14.33115545155482     0.00000000000000
 16    -4.91453419609244   -15.23807215070779    -1.58592600000000
 16    -4.91453419609244   -15.23807215070779     1.58592600000000
 42    -8.04130922798388   -11.62787160543993     0.00000000000000
 16    -6.46816413253170   -12.53478830459290    -1.58592600000000
 16    -6.46816413253170   -12.53478830459290     1.58592600000000
 42    -9.59493916442313    -8.92458775932504     0.00000000000000
 16    -8.02179406897096    -9.83150445847801    -1.58592600000000
 16    -8.02179406897096    -9.83150445847801     1.58592600000000
 42   -11.14856910086239    -6.22130391321015     0.00000000000000
 16    -9.57542400541021    -7.12822061236312    -1.58592600000000
 16    -9.57542400541021    -7.12822061236312     1.58592600000000
 42   -12.70219903730164    -3.51802006709526     0.00000000000000
 16   -11.12905394184947    -4.42493676624823    -1.58592600000000
 16   -11.12905394184947    -4.42493676624823     1.58592600000000
 42   -14.25582897374090    -0.81473622098037     0.00000000000000
 16   -12.68268387828872    -1.72165292013334    -1.58592600000000
 16   -12.68268387828872    -1.72165292013334     1.58592600000000
 16   -14.23631381472798     0.98163092598155    -1.58592600000000
 16   -14.23631381472798     0.98163092598155     1.58592600000000
 42     1.33900416093636   -22.45955084601073     0.00000000000000
 42    -0.21462577550289   -19.75626699989584     0.00000000000000
 16     1.35851931994928   -20.66318369904881    -1.58592600000000
 16     1.35851931994928   -20.66318369904881     1.58592600000000
 42    -1.76825571194215   -17.05298315378095     0.00000000000000
 16    -0.19511061648998   -17.95989985293392    -1.58592600000000
 16    -0.19511061648998   -17.95989985293392     1.58592600000000
 42    -3.32188564838141   -14.34969930766606     0.00000000000000
 16    -1.74874055292923   -15.25661600681903    -1.58592600000000
 16    -1.74874055292923   -15.25661600681903     1.58592600000000
 42    -4.87551558482066   -11.64641546155117     0.00000000000000
 16    -3.30237048936849   -12.55333216070414    -1.58592600000000
 16    -3.30237048936849   -12.55333216070414     1.58592600000000
 42    -6.42914552125992    -8.94313161543628     0.00000000000000
 16    -4.85600042580774    -9.85004831458925    -1.58592600000000
 16    -4.85600042580774    -9.85004831458925     1.58592600000000
 42    -7.98277545769917    -6.23984776932139     0.00000000000000
 16    -6.40963036224700    -7.14676446847436    -1.58592600000000
 16    -6.40963036224700    -7.14676446847436     1.58592600000000
 42    -9.53640539413843    -3.53656392320650     0.00000000000000
 16    -7.96326029868626    -4.44348062235947    -1.58592600000000
 16    -7.96326029868626    -4.44348062235947     1.58592600000000
 42   -11.09003533057769    -0.83328007709161     0.00000000000000
 16    -9.51689023512551    -1.74019677624458    -1.58592600000000
 16    -9.51689023512551    -1.74019677624458     1.58592600000000
 16   -11.07052017156477     0.96308706987031    -1.58592600000000
 16   -11.07052017156477     0.96308706987031     1.58592600000000
 42     4.50479780409957   -22.47809470212198     0.00000000000000
 42     2.95116786766031   -19.77481085600708     0.00000000000000
 16     4.52431296311249   -20.68172755516006    -1.58592600000000
 16     4.52431296311249   -20.68172755516006     1.58592600000000
 42     1.39753793122106   -17.07152700989220     0.00000000000000
 16     2.97068302667323   -17.97844370904516    -1.58592600000000
 16     2.97068302667323   -17.97844370904516     1.58592600000000
 42    -0.15609200521820   -14.36824316377730     0.00000000000000
 16     1.41705309023397   -15.27515986293028    -1.58592600000000
 16     1.41705309023397   -15.27515986293028     1.58592600000000
 42    -1.70972194165746   -11.66495931766241     0.00000000000000
 16    -0.13657684620528   -12.57187601681538    -1.58592600000000
 16    -0.13657684620528   -12.57187601681538     1.58592600000000
 42    -3.26335187809671    -8.96167547154752     0.00000000000000
 16    -1.69020678264454    -9.86859217070049    -1.58592600000000
 16    -1.69020678264454    -9.86859217070049     1.58592600000000
 42    -4.81698181453597    -6.25839162543264     0.00000000000000
 16    -3.24383671908379    -7.16530832458561    -1.58592600000000
 16    -3.24383671908379    -7.16530832458561     1.58592600000000
 42    -6.37061175097522    -3.55510777931775     0.00000000000000
 16    -4.79746665552305    -4.46202447847072    -1.58592600000000
 16    -4.79746665552305    -4.46202447847072     1.58592600000000
 42    -7.92424168741448    -0.85182393320285     0.00000000000000
 16    -6.35109659196230    -1.75874063235583    -1.58592600000000
 16    -6.35109659196230    -1.75874063235583     1.58592600000000
 42     7.67059144726278   -22.49663855823322     0.00000000000000
 42     6.11696151082352   -19.79335471211832     0.00000000000000
 16     7.69010660627569   -20.70027141127130    -1.58592600000000
 16     7.69010660627569   -20.70027141127130     1.58592600000000
 42     4.56333157438426   -17.09007086600344     0.00000000000000
 16     6.13647666983644   -17.99698756515640    -1.58592600000000
 16     6.13647666983644   -17.99698756515640     1.58592600000000
 42     3.00970163794501   -14.38678701988855     0.00000000000000
 16     4.58284673339718   -15.29370371904152    -1.58592600000000
 16     4.58284673339718   -15.29370371904152     1.58592600000000
 42     1.45607170150575   -11.68350317377366     0.00000000000000
 16     3.02921679695792   -12.59041987292663    -1.58592600000000
 16     3.02921679695792   -12.59041987292663     1.58592600000000
 42    -0.09755823493350    -8.98021932765877     0.00000000000000
 16     1.47558686051867    -9.88713602681174    -1.58592600000000
 16     1.47558686051867    -9.88713602681174     1.58592600000000
 42    -1.65118817137276    -6.27693548154388     0.00000000000000
 16    -0.07804307592058    -7.18385218069685    -1.58592600000000
 16    -0.07804307592058    -7.18385218069685     1.58592600000000
 42    -3.20481810781202    -3.57365163542899     0.00000000000000
 16    -1.63167301235984    -4.48056833458196    -1.58592600000000
 16    -1.63167301235984    -4.48056833458196     1.58592600000000
 42    -4.75844804425127    -0.87036778931410     0.00000000000000
 16    -3.18530294879910    -1.77728448846707    -1.58592600000000
 16    -3.18530294879910    -1.77728448846707     1.58592600000000
 42    10.83638509042598   -22.51518241434446     0.00000000000000
 16    12.40953018587816   -23.42209911349743    -1.58592600000000
 16    12.40953018587816   -23.42209911349743     1.58592600000000
 42     9.28275515398673   -19.81189856822957     0.00000000000000
 16    10.85590024943890   -20.71881526738254    -1.58592600000000
 16    10.85590024943890   -20.71881526738254     1.58592600000000
 42     7.72912521754747   -17.10861472211468     0.00000000000000
 16     9.30227031299965   -18.01553142126765    -1.58592600000000
 16     9.30227031299965   -18.01553142126765     1.58592600000000
 42     6.17549528110822   -14.40533087599979     0.00000000000000
 16     7.74864037656039   -15.31224757515276    -1.58592600000000
 16     7.74864037656039   -15.31224757515276     1.58592600000000
 42     4.62186534466896   -11.70204702988490     0.00000000000000
 16     6.19501044012113   -12.60896372903787    -1.58592600000000
 16     6.19501044012113   -12.60896372903787     1.58592600000000
 42     3.06823540822970    -8.99876318377001     0.00000000000000
 16     4.64138050368188    -9.90567988292298    -1.58592600000000
 16     4.64138050368188    -9.90567988292298     1.58592600000000
 42     1.51460547179045    -6.29547933765512     0.00000000000000
 16     3.08775056724262    -7.20239603680809    -1.58592600000000
 16     3.08775056724262    -7.20239603680809     1.58592600000000
 42    -0.03902446464881    -3.59219549154023     0.00000000000000
 16     1.53412063080337    -4.49911219069320    -1.58592600000000
 16     1.53412063080337    -4.49911219069320     1.58592600000000
 42    -1.59265440108806    -0.88891164542534     0.00000000000000
 16    -0.01950930563589    -1.79582834457831    -1.58592600000000
 16    -0.01950930563589    -1.79582834457831     1.58592600000000
 42    14.00217873358919   -22.53372627045570     0.00000000000000
 16    15.57532382904137   -23.44064296960867    -1.58592600000000
 16    15.57532382904137   -23.44064296960867     1.58592600000000
 42    12.44854879714994   -19.83044242434081     0.00000000000000
 16    14.02169389260211   -20.73735912349378    -1.58592600000000
 16    14.02169389260211   -20.73735912349378     1.58592600000000
 42    10.89491886071068   -17.12715857822592     0.00000000000000
 16    12.46806395616285   -18.03407527737889    -1.58592600000000
 16    12.46806395616285   -18.03407527737889     1.58592600000000
 42     9.34128892427142   -14.42387473211103     0.00000000000000
 16    10.91443401972360   -15.33079143126400    -1.58592600000000
 16    10.91443401972360   -15.33079143126400     1.58592600000000
 42     7.78765898783217   -11.72059088599614     0.00000000000000
 16     9.36080408328434   -12.62750758514911    -1.58592600000000
 16     9.36080408328434   -12.62750758514911     1.58592600000000
 42     6.23402905139291    -9.01730703988125     0.00000000000000
 16     7.80717414684508    -9.92422373903422    -1.58592600000000
 16     7.80717414684508    -9.92422373903422     1.58592600000000
 42     4.68039911495365    -6.31402319376636     0.00000000000000
 42    17.16797237675240   -22.55227012656694     0.00000000000000
 16    18.74111747220458   -23.45918682571991    -1.58592600000000
 16    18.74111747220458   -23.45918682571991     1.58592600000000
 42    15.61434244031315   -19.84898628045205     0.00000000000000
 16    17.18748753576532   -20.75590297960502    -1.58592600000000
 16    17.18748753576532   -20.75590297960502     1.58592600000000
 42    14.06071250387389   -17.14570243433717     0.00000000000000
 34   -20.30004011910371   -12.44238676356779     4.64114160000000
 34   -20.30004011910371   -12.44238676356779     7.98585840000000
 34   -22.19392295531189    -9.70300627574397     4.64114160000000
 34   -22.19392295531189    -9.70300627574397     7.98585840000000
 34   -24.08780579152006    -6.96362578792016     4.64114160000000
 34   -24.08780579152006    -6.96362578792016     7.98585840000000
 42   -27.70271873896741    -3.40743026141027     6.31350000000000
 34   -25.98168862772825    -4.22424530009635     4.64114160000000
 34   -25.98168862772825    -4.22424530009635     7.98585840000000
 42   -29.59660157517559    -0.66804977358646     6.31350000000000
 34   -27.87557146393642    -1.48486481227253     4.64114160000000
 34   -27.87557146393642    -1.48486481227253     7.98585840000000
 42   -31.49048441138376     2.07133071423735     6.31350000000000
 34   -29.76945430014460     1.25451567555128     4.64114160000000
 34   -29.76945430014460     1.25451567555128     7.98585840000000
 42   -13.07011053331223   -19.55593112519533     6.31350000000000
 34   -11.34908042207307   -20.37274616388141     4.64114160000000
 34   -11.34908042207307   -20.37274616388141     7.98585840000000
 42   -14.96399336952041   -16.81655063737151     6.31350000000000
 34   -13.24296325828124   -17.63336567605760     4.64114160000000
 34   -13.24296325828124   -17.63336567605760     7.98585840000000
 42   -16.85787620572859   -14.07717014954770     6.31350000000000
 34   -15.13684609448943   -14.89398518823378     4.64114160000000
 34   -15.13684609448943   -14.89398518823378     7.98585840000000
 42   -18.75175904193677   -11.33778966172389     6.31350000000000
 34   -17.03072893069760   -12.15460470040997     4.64114160000000
 34   -17.03072893069760   -12.15460470040997     7.98585840000000
 42   -20.64564187814494    -8.59840917390008     6.31350000000000
 34   -18.92461176690578    -9.41522421258616     4.64114160000000
 34   -18.92461176690578    -9.41522421258616     7.98585840000000
 42   -22.53952471435312    -5.85902868607627     6.31350000000000
 34   -20.81849460311396    -6.67584372476235     4.64114160000000
 34   -20.81849460311396    -6.67584372476235     7.98585840000000
 42   -24.43340755056130    -3.11964819825246     6.31350000000000
 34   -22.71237743932214    -3.93646323693854     4.64114160000000
 34   -22.71237743932214    -3.93646323693854     7.98585840000000
 42   -26.32729038676948    -0.38026771042865     6.31350000000000
 34   -24.60626027553032    -1.19708274911472     4.64114160000000
 34   -24.60626027553032    -1.19708274911472     7.98585840000000
 42   -28.22117322297766     2.35911277739516     6.31350000000000
 34   -26.50014311173850     1.54229773870909     4.64114160000000
 34   -26.50014311173850     1.54229773870909     7.98585840000000
 42    -9.80079934490612   -19.26814906203752     6.31350000000000
 34    -8.07976923366696   -20.08496410072360     4.64114160000000
 34    -8.07976923366696   -20.08496410072360     7.98585840000000
 42   -11.69468218111430   -16.52876857421371     6.31350000000000
 34    -9.97365206987514   -17.34558361289979     4.64114160000000
 34    -9.97365206987514   -17.34558361289979     7.98585840000000
 42   -13.58856501732248   -13.78938808638989     6.31350000000000
 34   -11.86753490608332   -14.60620312507597     4.64114160000000
 34   -11.86753490608332   -14.60620312507597     7.98585840000000
 42   -15.48244785353066   -11.05000759856608     6.31350000000000
 34   -13.76141774229150   -11.86682263725216     4.64114160000000
 34   -13.76141774229150   -11.86682263725216     7.98585840000000
 42   -17.37633068973884    -8.31062711074227     6.31350000000000
 34   -15.65530057849967    -9.12744214942835     4.64114160000000
 34   -15.65530057849967    -9.12744214942835     7.98585840000000
 42   -19.27021352594701    -5.57124662291846     6.31350000000000
 34   -17.54918341470785    -6.38806166160454     4.64114160000000
 34   -17.54918341470785    -6.38806166160454     7.98585840000000
 42   -21.16409636215519    -2.83186613509465     6.31350000000000
 34   -19.44306625091603    -3.64868117378072     4.64114160000000
 34   -19.44306625091603    -3.64868117378072     7.98585840000000
 42   -23.05797919836337    -0.09248564727083     6.31350000000000
 34   -21.33694908712421    -0.90930068595691     4.64114160000000
 34   -21.33694908712421    -0.90930068595691     7.98585840000000
 34   -23.23083192333239     1.83007980186690     4.64114160000000
 34   -23.23083192333239     1.83007980186690     7.98585840000000
 42    -4.63760532029184   -21.71974748670351     6.31350000000000
 42    -6.53148815650002   -18.98036699887970     6.31350000000000
 34    -4.81045804526085   -19.79718203756579     4.64114160000000
 34    -4.81045804526085   -19.79718203756579     7.98585840000000
 42    -8.42537099270819   -16.24098651105589     6.31350000000000
 34    -6.70434088146903   -17.05780154974197     4.64114160000000
 34    -6.70434088146903   -17.05780154974197     7.98585840000000
 42   -10.31925382891637   -13.50160602323208     6.31350000000000
 34    -8.59822371767721   -14.31842106191816     4.64114160000000
 34    -8.59822371767721   -14.31842106191816     7.98585840000000
 42   -12.21313666512455   -10.76222553540827     6.31350000000000
 34   -10.49210655388539   -11.57904057409435     4.64114160000000
 34   -10.49210655388539   -11.57904057409435     7.98585840000000
 42   -14.10701950133273    -8.02284504758446     6.31350000000000
 34   -12.38598939009357    -8.83966008627054     4.64114160000000
 34   -12.38598939009357    -8.83966008627054     7.98585840000000
 42   -16.00090233754091    -5.28346455976065     6.31350000000000
 34   -14.27987222630175    -6.10027959844672     4.64114160000000
 34   -14.27987222630175    -6.10027959844672     7.98585840000000
 42   -17.89478517374909    -2.54408407193683     6.31350000000000
 34   -16.17375506250992    -3.36089911062291     4.64114160000000
 34   -16.17375506250992    -3.36089911062291     7.98585840000000
 42   -19.78866800995726     0.19529641588698     6.31350000000000
 34   -18.06763789871810    -0.62151862279910     4.64114160000000
 34   -18.06763789871810    -0.62151862279910     7.98585840000000
 42    -1.36829413188573   -21.43196542354571     6.31350000000000
 34     0.35273597935343   -22.24878046223178     4.64114160000000
 34     0.35273597935343   -22.24878046223178     7.98585840000000
 42    -3.26217696809391   -18.69258493572189     6.31350000000000
 34    -1.54114685685475   -19.50939997440797     4.64114160000000
 34    -1.54114685685475   -19.50939997440797     7.98585840000000
 42    -5.15605980430209   -15.95320444789808     6.31350000000000
 34    -3.43502969306292   -16.77001948658416     4.64114160000000
 34    -3.43502969306292   -16.77001948658416     7.98585840000000
 42    -7.04994264051026   -13.21382396007427     6.31350000000000
 34    -5.32891252927110   -14.03063899876035     4.64114160000000
 34    -5.32891252927110   -14.03063899876035     7.98585840000000
 42    -8.94382547671844   -10.47444347225046     6.31350000000000
 34    -7.22279536547928   -11.29125851093654     4.64114160000000
 34    -7.22279536547928   -11.29125851093654     7.98585840000000
 42   -10.83770831292662    -7.73506298442664     6.31350000000000
 34    -9.11667820168746    -8.55187802311272     4.64114160000000
 34    -9.11667820168746    -8.55187802311272     7.98585840000000
 42   -12.73159114913480    -4.99568249660283     6.31350000000000
 34   -11.01056103789564    -5.81249753528891     4.64114160000000
 34   -11.01056103789564    -5.81249753528891     7.98585840000000
 42   -14.62547398534298    -2.25630200877902     6.31350000000000
 34   -12.90444387410382    -3.07311704746510     4.64114160000000
 34   -12.90444387410382    -3.07311704746510     7.98585840000000
 42   -16.51935682155115     0.48307847904479     6.31350000000000
 34   -14.79832671031199    -0.33373655964129     4.64114160000000
 34   -14.79832671031199    -0.33373655964129     7.98585840000000
 42     1.90101705652038   -21.14418336038789     6.31350000000000
 34     3.62204716775954   -21.96099839907397     4.64114160000000
 34     3.62204716775954   -21.96099839907397     7.98585840000000
 42     0.00713422031220   -18.40480287256408     6.31350000000000
 34     1.72816433155136   -19.22161791125016     4.64114160000000
 34     1.72816433155136   -19.22161791125016     7.98585840000000
 42    -1.88674861589598   -15.66542238474027     6.31350000000000
 34    -0.16571850465681   -16.48223742342635     4.64114160000000
 34    -0.16571850465681   -16.48223742342635     7.98585840000000
 42    -3.78063145210416   -12.92604189691646     6.31350000000000
 34    -2.05960134086499   -13.74285693560254     4.64114160000000
 34    -2.05960134086499   -13.74285693560254     7.98585840000000
 42    -5.67451428831234   -10.18666140909264     6.31350000000000
 34    -3.95348417707317   -11.00347644777872     4.64114160000000
 34    -3.95348417707317   -11.00347644777872     7.98585840000000
 42    -7.56839712452051    -7.44728092126883     6.31350000000000
 34    -5.84736701328135    -8.26409595995491     4.64114160000000
 34    -5.84736701328135    -8.26409595995491     7.98585840000000
 42    -9.46227996072869    -4.70790043344502     6.31350000000000
 34    -7.74124984948953    -5.52471547213110     4.64114160000000
 34    -7.74124984948953    -5.52471547213110     7.98585840000000
 42   -11.35616279693687    -1.96851994562121     6.31350000000000
 34    -9.63513268569771    -2.78533498430729     4.64114160000000
 34    -9.63513268569771    -2.78533498430729     7.98585840000000
 42   -13.25004563314505     0.77086054220260     6.31350000000000
 34   -11.52901552190589    -0.04595449648348     4.64114160000000
 34   -11.52901552190589    -0.04595449648348     7.98585840000000
 42     5.17032824492649   -20.85640129723008     6.31350000000000
 34     6.89135835616565   -21.67321633591616     4.64114160000000
 34     6.89135835616565   -21.67321633591616     7.98585840000000
 42     3.27644540871831   -18.11702080940627     6.31350000000000
 34     4.99747551995747   -18.93383584809235     4.64114160000000
 34     4.99747551995747   -18.93383584809235     7.98585840000000
 42     1.38256257251013   -15.37764032158246     6.31350000000000
 34     3.10359268374929   -16.19445536026853     4.64114160000000
 34     3.10359268374929   -16.19445536026853     7.98585840000000
 42    -0.51132026369805   -12.63825983375865     6.31350000000000
 34     1.20970984754111   -13.45507487244472     4.64114160000000
 34     1.20970984754111   -13.45507487244472     7.98585840000000
 42    -2.40520309990623    -9.89887934593483     6.31350000000000
 34    -0.68417298866707   -10.71569438462091     4.64114160000000
 34    -0.68417298866707   -10.71569438462091     7.98585840000000
 42    -4.29908593611441    -7.15949885811102     6.31350000000000
 34    -2.57805582487524    -7.97631389679710     4.64114160000000
 34    -2.57805582487524    -7.97631389679710     7.98585840000000
 42    -6.19296877232259    -4.42011837028721     6.31350000000000
 34    -4.47193866108342    -5.23693340897329     4.64114160000000
 34    -4.47193866108342    -5.23693340897329     7.98585840000000
 42    -8.08685160853076    -1.68073788246340     6.31350000000000
 34    -6.36582149729160    -2.49755292114948     4.64114160000000
 34    -6.36582149729160    -2.49755292114948     7.98585840000000
 34    -8.25970433349978     0.24182756667434     4.64114160000000
 34    -8.25970433349978     0.24182756667434     7.98585840000000
 42    10.33352226954077   -23.30799972189608     6.31350000000000
 42     8.43963943333259   -20.56861923407227     6.31350000000000
 34    10.16066954457176   -21.38543427275835     4.64114160000000
 34    10.16066954457176   -21.38543427275835     7.98585840000000
 42     6.54575659712442   -17.82923874624846     6.31350000000000
 34     8.26678670836358   -18.64605378493453     4.64114160000000
 34     8.26678670836358   -18.64605378493453     7.98585840000000