CRYSTAL
PRIMVEC
 20.35626116554923 -24.33151029224469 0.00000000000000
 -33.21677198743639 2.83069689924763 0.00000000000000
 0.00000000000000 0.00000000000000 19.57178440000000
PRIMCOORD
 501 1
 16   -26.95077824295590    -4.37942348078244    -1.58592600000000
 16   -26.95077824295590    -4.37942348078244     1.58592600000000
 42   -30.08377757914579    -0.77463270136766     0.00000000000000
 16   -28.50906310296294    -1.67881314982844    -1.58592600000000
 16   -28.50906310296294    -1.67881314982844     1.58592600000000
 42   -31.64206243915282     1.92597762958634     0.00000000000000
 16   -30.06734796296998     1.02179718112556    -1.58592600000000
 16   -30.06734796296998     1.02179718112556     1.58592600000000
 16   -17.55179009018481   -15.19487346142778    -1.58592600000000
 16   -17.55179009018481   -15.19487346142778     1.58592600000000
 42   -20.68478942637469   -11.59008268201300     0.00000000000000
 16   -19.11007495019184   -12.49426313047379    -1.58592600000000
 16   -19.11007495019184   -12.49426313047379     1.58592600000000
 42   -22.24307428638173    -8.88947235105901     0.00000000000000
 16   -20.66835981019889    -9.79365279951979    -1.58592600000000
 16   -20.66835981019889    -9.79365279951979     1.58592600000000
 42   -23.80135914638877    -6.18886202010501     0.00000000000000
 16   -22.22664467020593    -7.09304246856580    -1.58592600000000
 16   -22.22664467020593    -7.09304246856580     1.58592600000000
 42   -25.35964400639581    -3.48825168915102     0.00000000000000
 16   -23.78492953021297    -4.39243213761180    -1.58592600000000
 16   -23.78492953021297    -4.39243213761180     1.58592600000000
 42   -26.91792886640285    -0.78764135819702     0.00000000000000
 16   -25.34321439022001    -1.69182180665780    -1.58592600000000
 16   -25.34321439022001    -1.69182180665780     1.58592600000000
 42   -28.47621372640989     1.91296897275698     0.00000000000000
 16   -26.90149925022705     1.00878852429619    -1.58592600000000
 16   -26.90149925022705     1.00878852429619     1.58592600000000
 42   -12.84408613361063   -19.70492233170435     0.00000000000000
 16   -11.26937165742779   -20.60910278016514    -1.58592600000000
 16   -11.26937165742779   -20.60910278016514     1.58592600000000
 42   -14.40237099361767   -17.00431200075036     0.00000000000000
 16   -12.82765651743483   -17.90849244921114    -1.58592600000000
 16   -12.82765651743483   -17.90849244921114     1.58592600000000
 42   -15.96065585362471   -14.30370166979637     0.00000000000000
 16   -14.38594137744187   -15.20788211825715    -1.58592600000000
 16   -14.38594137744187   -15.20788211825715     1.58592600000000
 42   -17.51894071363175   -11.60309133884237     0.00000000000000
 16   -15.94422623744891   -12.50727178730315    -1.58592600000000
 16   -15.94422623744891   -12.50727178730315     1.58592600000000
 42   -19.07722557363879    -8.90248100788837     0.00000000000000
 16   -17.50251109745595    -9.80666145634915    -1.58592600000000
 16   -17.50251109745595    -9.80666145634915     1.58592600000000
 42   -20.63551043364583    -6.20187067693438     0.00000000000000
 16   -19.06079595746299    -7.10605112539516    -1.58592600000000
 16   -19.06079595746299    -7.10605112539516     1.58592600000000
 42   -22.19379529365287    -3.50126034598038     0.00000000000000
 16   -20.61908081747003    -4.40544079444116    -1.58592600000000
 16   -20.61908081747003    -4.40544079444116     1.58592600000000
 42   -23.75208015365991    -0.80065001502638     0.00000000000000
 16   -22.17736567747707    -1.70483046348717    -1.58592600000000
 16   -22.17736567747707    -1.70483046348717     1.58592600000000
 42   -25.31036501366696     1.89996031592761     0.00000000000000
 16   -23.73565053748412     0.99577986746683    -1.58592600000000
 16   -23.73565053748412     0.99577986746683     1.58592600000000
 42    -9.67823742086770   -19.71793098853372     0.00000000000000
 16    -8.10352294468485   -20.62211143699450    -1.58592600000000
 16    -8.10352294468485   -20.62211143699450     1.58592600000000
 42   -11.23652228087474   -17.01732065757972     0.00000000000000
 16    -9.66180780469189   -17.92150110604050    -1.58592600000000
 16    -9.66180780469189   -17.92150110604050     1.58592600000000
 42   -12.79480714088178   -14.31671032662573     0.00000000000000
 16   -11.22009266469894   -15.22089077508651    -1.58592600000000
 16   -11.22009266469894   -15.22089077508651     1.58592600000000
 42   -14.35309200088882   -11.61609999567173     0.00000000000000
 16   -12.77837752470598   -12.52028044413251    -1.58592600000000
 16   -12.77837752470598   -12.52028044413251     1.58592600000000
 42   -15.91137686089586    -8.91548966471773     0.00000000000000
 16   -14.33666238471302    -9.81967011317852    -1.58592600000000
 16   -14.33666238471302    -9.81967011317852     1.58592600000000
 42   -17.46966172090290    -6.21487933376374     0.00000000000000
 16   -15.89494724472005    -7.11905978222452    -1.58592600000000
 16   -15.89494724472005    -7.11905978222452     1.58592600000000
 42   -19.02794658090994    -3.51426900280974     0.00000000000000
 16   -17.45323210472710    -4.41844945127053    -1.58592600000000
 16   -17.45323210472710    -4.41844945127053     1.58592600000000
 42   -20.58623144091698    -0.81365867185575     0.00000000000000
 16   -19.01151696473413    -1.71783912031653    -1.58592600000000
 16   -19.01151696473413    -1.71783912031653     1.58592600000000
 42   -22.14451630092402     1.88695165909825     0.00000000000000
 16   -20.56980182474118     0.98277121063747    -1.58592600000000
 16   -20.56980182474118     0.98277121063747     1.58592600000000
 42    -6.51238870812476   -19.73093964536308     0.00000000000000
 16    -4.93767423194192   -20.63512009382386    -1.58592600000000
 16    -4.93767423194192   -20.63512009382386     1.58592600000000
 42    -8.07067356813180   -17.03032931440909     0.00000000000000
 16    -6.49595909194896   -17.93450976286987    -1.58592600000000
 16    -6.49595909194896   -17.93450976286987     1.58592600000000
 42    -9.62895842813884   -14.32971898345509     0.00000000000000
 16    -8.05424395195600   -15.23389943191587    -1.58592600000000
 16    -8.05424395195600   -15.23389943191587     1.58592600000000
 42   -11.18724328814588   -11.62910865250110     0.00000000000000
 16    -9.61252881196304   -12.53328910096188    -1.58592600000000
 16    -9.61252881196304   -12.53328910096188     1.58592600000000
 42   -12.74552814815292    -8.92849832154710     0.00000000000000
 16   -11.17081367197008    -9.83267877000788    -1.58592600000000
 16   -11.17081367197008    -9.83267877000788     1.58592600000000
 42   -14.30381300815996    -6.22788799059310     0.00000000000000
 16   -12.72909853197712    -7.13206843905389    -1.58592600000000
 16   -12.72909853197712    -7.13206843905389     1.58592600000000
 42   -15.86209786816700    -3.52727765963911     0.00000000000000
 16   -14.28738339198416    -4.43145810809989    -1.58592600000000
 16   -14.28738339198416    -4.43145810809989     1.58592600000000
 42   -17.42038272817404    -0.82666732868511     0.00000000000000
 16   -15.84566825199120    -1.73084777714589    -1.58592600000000
 16   -15.84566825199120    -1.73084777714589     1.58592600000000
 16   -17.40395311199824     0.96976255380810    -1.58592600000000
 16   -17.40395311199824     0.96976255380810     1.58592600000000
 42    -3.34653999538183   -19.74394830219244     0.00000000000000
 16    -1.77182551919898   -20.64812875065323    -1.58592600000000
 16    -1.77182551919898   -20.64812875065323     1.58592600000000
 42    -4.90482485538887   -17.04333797123845     0.00000000000000
 16    -3.33011037920603   -17.94751841969923    -1.58592600000000
 16    -3.33011037920603   -17.94751841969923     1.58592600000000
 42    -6.46310971539591   -14.34272764028445     0.00000000000000
 16    -4.88839523921307   -15.24690808874524    -1.58592600000000
 16    -4.88839523921307   -15.24690808874524     1.58592600000000
 42    -8.02139457540295   -11.64211730933046     0.00000000000000
 16    -6.44668009922011   -12.54629775779124    -1.58592600000000
 16    -6.44668009922011   -12.54629775779124     1.58592600000000
 42    -9.57967943540999    -8.94150697837646     0.00000000000000
 16    -8.00496495922715    -9.84568742683724    -1.58592600000000
 16    -8.00496495922715    -9.84568742683724     1.58592600000000
 42   -11.13796429541703    -6.24089664742247     0.00000000000000
 16    -9.56324981923419    -7.14507709588325    -1.58592600000000
 16    -9.56324981923419    -7.14507709588325     1.58592600000000
 42   -12.69624915542407    -3.54028631646847     0.00000000000000
 16   -11.12153467924123    -4.44446676492925    -1.58592600000000
 16   -11.12153467924123    -4.44446676492925     1.58592600000000
 42   -14.25453401543111    -0.83967598551447     0.00000000000000
 16   -12.67981953924827    -1.74385643397526    -1.58592600000000
 16   -12.67981953924827    -1.74385643397526     1.58592600000000
 16   -14.23810439925531     0.95675389697874    -1.58592600000000
 16   -14.23810439925531     0.95675389697874     1.58592600000000
 42     1.37759357736815   -22.45756728997581     0.00000000000000
 42    -0.18069128263889   -19.75695695902181     0.00000000000000
 16     1.39402319354395   -20.66113740748259    -1.58592600000000
 16     1.39402319354395   -20.66113740748259     1.58592600000000
 42    -1.73897614264593   -17.05634662806781     0.00000000000000
 16    -0.16426166646309   -17.96052707652859    -1.58592600000000
 16    -0.16426166646309   -17.96052707652859     1.58592600000000
 42    -3.29726100265297   -14.35573629711382     0.00000000000000
 16    -1.72254652647013   -15.25991674557460    -1.58592600000000
 16    -1.72254652647013   -15.25991674557460     1.58592600000000
 42    -4.85554586266001   -11.65512596615982     0.00000000000000
 16    -3.28083138647717   -12.55930641462060    -1.58592600000000
 16    -3.28083138647717   -12.55930641462060     1.58592600000000
 42    -6.41383072266705    -8.95451563520582     0.00000000000000
 16    -4.83911624648421    -9.85869608366661    -1.58592600000000
 16    -4.83911624648421    -9.85869608366661     1.58592600000000
 42    -7.97211558267409    -6.25390530425183     0.00000000000000
 16    -6.39740110649125    -7.15808575271261    -1.58592600000000
 16    -6.39740110649125    -7.15808575271261     1.58592600000000
 42    -9.53040044268113    -3.55329497329783     0.00000000000000
 16    -7.95568596649829    -4.45747542175862    -1.58592600000000
 16    -7.95568596649829    -4.45747542175862     1.58592600000000
 42   -11.08868530268817    -0.85268464234384     0.00000000000000
 16    -9.51397082650533    -1.75686509080462    -1.58592600000000
 16    -9.51397082650533    -1.75686509080462     1.58592600000000
 16   -11.07225568651237     0.94374524014938    -1.58592600000000
 16   -11.07225568651237     0.94374524014938     1.58592600000000
 42     4.54344229011109   -22.47057594680517     0.00000000000000
 42     2.98515743010405   -19.76996561585117     0.00000000000000
 16     4.55987190628689   -20.67414606431196    -1.58592600000000
 16     4.55987190628689   -20.67414606431196     1.58592600000000
 42     1.42687257009700   -17.06935528489718     0.00000000000000
 16     3.00158704627985   -17.97353573335796    -1.58592600000000
 16     3.00158704627985   -17.97353573335796     1.58592600000000
 42    -0.13141228991004   -14.36874495394318     0.00000000000000
 16     1.44330218627280   -15.27292540240396    -1.58592600000000
 16     1.44330218627280   -15.27292540240396     1.58592600000000
 42    -1.68969714991708   -11.66813462298918     0.00000000000000
 16    -0.11498267373424   -12.57231507144997    -1.58592600000000
 16    -0.11498267373424   -12.57231507144997     1.58592600000000
 42    -3.24798200992412    -8.96752429203519     0.00000000000000
 16    -1.67326753374128    -9.87170474049597    -1.58592600000000
 16    -1.67326753374128    -9.87170474049597     1.58592600000000
 42    -4.80626686993116    -6.26691396108119     0.00000000000000
 16    -3.23155239374831    -7.17109440954198    -1.58592600000000
 16    -3.23155239374831    -7.17109440954198     1.58592600000000
 42    -6.36455172993820    -3.56630363012720     0.00000000000000
 16    -4.78983725375535    -4.47048407858798    -1.58592600000000
 16    -4.78983725375535    -4.47048407858798     1.58592600000000
 42    -7.92283658994524    -0.86569329917320     0.00000000000000
 16    -6.34812211376240    -1.76987374763398    -1.58592600000000
 16    -6.34812211376240    -1.76987374763398     1.58592600000000
 42     7.70929100285402   -22.48358460363453     0.00000000000000
 42     6.15100614284698   -19.78297427268053     0.00000000000000
 16     7.72572061902982   -20.68715472114132    -1.58592600000000
 16     7.72572061902982   -20.68715472114132     1.58592600000000
 42     4.59272128283994   -17.08236394172654     0.00000000000000
 16     6.16743575902278   -17.98654439018732    -1.58592600000000
 16     6.16743575902278   -17.98654439018732     1.58592600000000
 42     3.03443642283290   -14.38175361077255     0.00000000000000
 16     4.60915089901574   -15.28593405923333    -1.58592600000000
 16     4.60915089901574   -15.28593405923333     1.58592600000000
 42     1.47615156282586   -11.68114327981855     0.00000000000000
 16     3.05086603900870   -12.58532372827933    -1.58592600000000
 16     3.05086603900870   -12.58532372827933     1.58592600000000
 42    -0.08213329718118    -8.98053294886455     0.00000000000000
 16     1.49258117900166    -9.88471339732533    -1.58592600000000
 16     1.49258117900166    -9.88471339732533     1.58592600000000
 42    -1.64041815718822    -6.27992261791056     0.00000000000000
 16    -0.06570368100538    -7.18410306637134    -1.58592600000000
 16    -0.06570368100538    -7.18410306637134     1.58592600000000
 42    -3.19870301719526    -3.57931228695656     0.00000000000000
 16    -1.62398854101242    -4.48349273541734    -1.58592600000000
 16    -1.62398854101242    -4.48349273541734     1.58592600000000
 42    -4.75698787720230    -0.87870195600256     0.00000000000000
 16    -3.18227340101946    -1.78288240446335    -1.58592600000000
 16    -3.18227340101946    -1.78288240446335     1.58592600000000
 42    10.87513971559695   -22.49659326046390     0.00000000000000
 16    12.44985419177980   -23.40077370892468    -1.58592600000000
 16    12.44985419177980   -23.40077370892468     1.58592600000000
 42     9.31685485558991   -19.79598292950990     0.00000000000000
 16    10.89156933177275   -20.70016337797068    -1.58592600000000
 16    10.89156933177275   -20.70016337797068     1.58592600000000
 42     7.75856999558287   -17.09537259855590     0.00000000000000
 16     9.33328447176571   -17.99955304701668    -1.58592600000000
 16     9.33328447176571   -17.99955304701668     1.58592600000000
 42     6.20028513557583   -14.39476226760191     0.00000000000000
 16     7.77499961175867   -15.29894271606269    -1.58592600000000
 16     7.77499961175867   -15.29894271606269     1.58592600000000
 42     4.64200027556879   -11.69415193664791     0.00000000000000
 16     6.21671475175163   -12.59833238510869    -1.58592600000000
 16     6.21671475175163   -12.59833238510869     1.58592600000000
 42     3.08371541556175    -8.99354160569391     0.00000000000000
 16     4.65842989174459    -9.89772205415470    -1.58592600000000
 16     4.65842989174459    -9.89772205415470     1.58592600000000
 42     1.52543055555471    -6.29293127473992     0.00000000000000
 16     3.10014503173755    -7.19711172320070    -1.58592600000000
 16     3.10014503173755    -7.19711172320070     1.58592600000000
 42    -0.03285430445233    -3.59232094378592     0.00000000000000
 16     1.54186017173051    -4.49650139224671    -1.58592600000000
 16     1.54186017173051    -4.49650139224671     1.58592600000000
 42    -1.59113916445937    -0.89171061283193     0.00000000000000
 16    -0.01642468827653    -1.79589106129271    -1.58592600000000
 16    -0.01642468827653    -1.79589106129271     1.58592600000000
 42    14.04098842833989   -22.50960191729326     0.00000000000000
 16    15.61570290452273   -23.41378236575404    -1.58592600000000
 16    15.61570290452273   -23.41378236575404     1.58592600000000
 42    12.48270356833285   -19.80899158633926     0.00000000000000
 16    14.05741804451569   -20.71317203480005    -1.58592600000000
 16    14.05741804451569   -20.71317203480005     1.58592600000000
 42    10.92441870832581   -17.10838125538527     0.00000000000000
 16    12.49913318450865   -18.01256170384605    -1.58592600000000
 16    12.49913318450865   -18.01256170384605     1.58592600000000
 42     9.36613384831877   -14.40777092443127     0.00000000000000
 16    10.94084832450161   -15.31195137289205    -1.58592600000000
 16    10.94084832450161   -15.31195137289205     1.58592600000000
 42     7.80784898831173   -11.70716059347727     0.00000000000000
 16     9.38256346449457   -12.61134104193805    -1.58592600000000
 16     9.38256346449457   -12.61134104193805     1.58592600000000
 42     6.24956412830469    -9.00655026252328     0.00000000000000
 16     7.82427860448753    -9.91073071098406    -1.58592600000000
 16     7.82427860448753    -9.91073071098406     1.58592600000000
 42     4.69127926829765    -6.30593993156928     0.00000000000000
 42    17.20683714108283   -22.52261057412262     0.00000000000000
 16    18.78155161726567   -23.42679102258340    -1.58592600000000
 16    18.78155161726567   -23.42679102258340     1.58592600000000
 42    15.64855228107579   -19.82200024316862     0.00000000000000
 16    17.22326675725863   -20.72618069162941    -1.58592600000000
 16    17.22326675725863   -20.72618069162941     1.58592600000000
 42    14.09026742106874   -17.12138991221463     0.00000000000000
 34   -20.27881624236834   -12.47808023657394     4.64114160000000
 34   -20.27881624236834   -12.47808023657394     7.98585840000000
 34   -22.17741850189374    -9.74196763238464     4.64114160000000
 34   -22.17741850189374    -9.74196763238464     7.98585840000000
 34   -24.07602076141914    -7.00585502819534     4.64114160000000
 34   -24.07602076141914    -7.00585502819534     7.98585840000000
 42   -27.69706882648060    -3.45592365298620     6.31350000000000
 34   -25.97462302094455    -4.26974242400604     4.64114160000000
 34   -25.97462302094455    -4.26974242400604     7.98585840000000
 42   -29.59567108600600    -0.71981104879690     6.31350000000000
 34   -27.87322528046994    -1.53362981981675     4.64114160000000
 34   -27.87322528046994    -1.53362981981675     7.98585840000000
 42   -31.49427334553140     2.01630155539240     6.31350000000000
 34   -29.77182753999535     1.20248278437255     4.64114160000000
 34   -29.77182753999535     1.20248278437255     7.98585840000000
 42   -13.03661443950757   -19.57909613266300     6.31350000000000
 34   -11.31416863397151   -20.39291490368284     4.64114160000000
 34   -11.31416863397151   -20.39291490368284     7.98585840000000
 42   -14.93521669903297   -16.84298352847370     6.31350000000000
 34   -13.21277089349691   -17.65680229949354     4.64114160000000
 34   -13.21277089349691   -17.65680229949354     7.98585840000000
 42   -16.83381895855837   -14.10687092428440     6.31350000000000
 34   -15.11137315302231   -14.92068969530424     4.64114160000000
 34   -15.11137315302231   -14.92068969530424     7.98585840000000
 42   -18.73242121808378   -11.37075832009510     6.31350000000000
 34   -17.00997541254772   -12.18457709111494     4.64114160000000
 34   -17.00997541254772   -12.18457709111494     7.98585840000000
 42   -20.63102347760918    -8.63464571590580     6.31350000000000
 34   -18.90857767207312    -9.44846448692565     4.64114160000000
 34   -18.90857767207312    -9.44846448692565     7.98585840000000
 42   -22.52962573713458    -5.89853311171650     6.31350000000000
 34   -20.80717993159852    -6.71235188273635     4.64114160000000
 34   -20.80717993159852    -6.71235188273635     7.98585840000000
 42   -24.42822799665998    -3.16242050752720     6.31350000000000
 34   -22.70578219112392    -3.97623927854705     4.64114160000000
 34   -22.70578219112392    -3.97623927854705     7.98585840000000
 42   -26.32683025618538    -0.42630790333791     6.31350000000000
 34   -24.60438445064932    -1.24012667435775     4.64114160000000
 34   -24.60438445064932    -1.24012667435775     7.98585840000000
 42   -28.22543251571079     2.30980470085139     6.31350000000000
 34   -26.50298671017472     1.49598592983155     4.64114160000000
 34   -26.50298671017472     1.49598592983155     7.98585840000000
 42    -9.76777360968695   -19.28559298720400     6.31350000000000
 34    -8.04532780415089   -20.09941175822384     4.64114160000000
 34    -8.04532780415089   -20.09941175822384     7.98585840000000
 42   -11.66637586921235   -16.54948038301470     6.31350000000000
 34    -9.94393006367629   -17.36329915403455     4.64114160000000
 34    -9.94393006367629   -17.36329915403455     7.98585840000000
 42   -13.56497812873775   -13.81336777882540     6.31350000000000
 34   -11.84253232320170   -14.62718654984524     4.64114160000000
 34   -11.84253232320170   -14.62718654984524     7.98585840000000
 42   -15.46358038826315   -11.07725517463610     6.31350000000000
 34   -13.74113458272710   -11.89107394565595     4.64114160000000
 34   -13.74113458272710   -11.89107394565595     7.98585840000000
 42   -17.36218264778856    -8.34114257044680     6.31350000000000
 34   -15.63973684225250    -9.15496134146665     4.64114160000000
 34   -15.63973684225250    -9.15496134146665     7.98585840000000
 42   -19.26078490731396    -5.60502996625751     6.31350000000000
 34   -17.53833910177790    -6.41884873727735     4.64114160000000
 34   -17.53833910177790    -6.41884873727735     7.98585840000000
 42   -21.15938716683936    -2.86891736206821     6.31350000000000
 34   -19.43694136130330    -3.68273613308805     4.64114160000000
 34   -19.43694136130330    -3.68273613308805     7.98585840000000
 42   -23.05798942636476    -0.13280475787891     6.31350000000000
 34   -21.33554362082871    -0.94662352889875     4.64114160000000
 34   -21.33554362082871    -0.94662352889875     7.98585840000000
 34   -23.23414588035411     1.78948907529055     4.64114160000000
 34   -23.23414588035411     1.78948907529055     7.98585840000000
 42    -4.60033052034093   -21.72820244593430     6.31350000000000
 42    -6.49893277986633   -18.99208984174501     6.31350000000000
 34    -4.77648697433027   -19.80590861276485     4.64114160000000
 34    -4.77648697433027   -19.80590861276485     7.98585840000000
 42    -8.39753503939173   -16.25597723755570     6.31350000000000
 34    -6.67508923385567   -17.06979600857555     4.64114160000000
 34    -6.67508923385567   -17.06979600857555     7.98585840000000
 42   -10.29613729891713   -13.51986463336640     6.31350000000000
 34    -8.57369149338107   -14.33368340438625     4.64114160000000
 34    -8.57369149338107   -14.33368340438625     7.98585840000000
 42   -12.19473955844254   -10.78375202917711     6.31350000000000
 34   -10.47229375290648   -11.59757080019695     4.64114160000000
 34   -10.47229375290648   -11.59757080019695     7.98585840000000
 42   -14.09334181796794    -8.04763942498781     6.31350000000000
 34   -12.37089601243188    -8.86145819600765     4.64114160000000
 34   -12.37089601243188    -8.86145819600765     7.98585840000000
 42   -15.99194407749334    -5.31152682079851     6.31350000000000
 34   -14.26949827195728    -6.12534559181835     4.64114160000000
 34   -14.26949827195728    -6.12534559181835     7.98585840000000
 42   -17.89054633701874    -2.57541421660921     6.31350000000000
 34   -16.16810053148268    -3.38923298762905     4.64114160000000
 34   -16.16810053148268    -3.38923298762905     7.98585840000000
 42   -19.78914859654414     0.16069838758009     6.31350000000000
 34   -18.06670279100808    -0.65312038343975     4.64114160000000
 34   -18.06670279100808    -0.65312038343975     7.98585840000000
 42    -1.33148969052031   -21.43469930047531     6.31350000000000
 34     0.39095611501575   -22.24851807149514     4.64114160000000
 34     0.39095611501575   -22.24851807149514     7.98585840000000
 42    -3.23009195004571   -18.69858669628601     6.31350000000000
 34    -1.50764614450965   -19.51240546730585     4.64114160000000
 34    -1.50764614450965   -19.51240546730585     7.98585840000000
 42    -5.12869420957111   -15.96247409209671     6.31350000000000
 34    -3.40624840403505   -16.77629286311655     4.64114160000000
 34    -3.40624840403505   -16.77629286311655     7.98585840000000
 42    -7.02729646909651   -13.22636148790741     6.31350000000000
 34    -5.30485066356045   -14.04018025892725     4.64114160000000
 34    -5.30485066356045   -14.04018025892725     7.98585840000000
 42    -8.92589872862191   -10.49024888371811     6.31350000000000
 34    -7.20345292308586   -11.30406765473795     4.64114160000000
 34    -7.20345292308586   -11.30406765473795     7.98585840000000
 42   -10.82450098814732    -7.75413627952881     6.31350000000000
 34    -9.10205518261126    -8.56795505054865     4.64114160000000
 34    -9.10205518261126    -8.56795505054865     7.98585840000000
 42   -12.72310324767272    -5.01802367533951     6.31350000000000
 34   -11.00065744213666    -5.83184244635936     4.64114160000000
 34   -11.00065744213666    -5.83184244635936     7.98585840000000
 42   -14.62170550719812    -2.28191107115021     6.31350000000000
 34   -12.89925970166206    -3.09572984217006     4.64114160000000
 34   -12.89925970166206    -3.09572984217006     7.98585840000000
 42   -16.52030776672352     0.45420153303909     6.31350000000000
 34   -14.79786196118746    -0.35961723798076     4.64114160000000
 34   -14.79786196118746    -0.35961723798076     7.98585840000000
 42     1.93735113930031   -21.14119615501631     6.31350000000000
 34     3.65979694483637   -21.95501492603615     4.64114160000000
 34     3.65979694483637   -21.95501492603615     7.98585840000000
 42     0.03874887977491   -18.40508355082701     6.31350000000000
 34     1.76119468531097   -19.21890232184685     4.64114160000000
 34     1.76119468531097   -19.21890232184685     7.98585840000000
 42    -1.85985337975049   -15.66897094663771     6.31350000000000
 34    -0.13740757421443   -16.48278971765756     4.64114160000000
 34    -0.13740757421443   -16.48278971765756     7.98585840000000
 42    -3.75845563927589   -12.93285834244841     6.31350000000000
 34    -2.03600983373983   -13.74667711346826     4.64114160000000
 34    -2.03600983373983   -13.74667711346826     7.98585840000000
 42    -5.65705789880129   -10.19674573825911     6.31350000000000
 34    -3.93461209326523   -11.01056450927896     4.64114160000000
 34    -3.93461209326523   -11.01056450927896     7.98585840000000
 42    -7.55566015832670    -7.46063313406981     6.31350000000000
 34    -5.83321435279064    -8.27445190508966     4.64114160000000
 34    -5.83321435279064    -8.27445190508966     7.98585840000000
 42    -9.45426241785210    -4.72452052988052     6.31350000000000
 34    -7.73181661231604    -5.53833930090036     4.64114160000000
 34    -7.73181661231604    -5.53833930090036     7.98585840000000
 42   -11.35286467737750    -1.98840792569122     6.31350000000000
 34    -9.63041887184144    -2.80222669671106     4.64114160000000
 34    -9.63041887184144    -2.80222669671106     7.98585840000000
 42   -13.25146693690290     0.74770467849808     6.31350000000000
 34   -11.52902113136684    -0.06611409252176     4.64114160000000
 34   -11.52902113136684    -0.06611409252176     7.98585840000000
 42     5.20619196912093   -20.84769300955731     6.31350000000000
 34     6.92863777465699   -21.66151178057716     4.64114160000000
 34     6.92863777465699   -21.66151178057716     7.98585840000000
 42     3.30758970959553   -18.11158040536801     6.31350000000000
 34     5.03003551513159   -18.92539917638786     4.64114160000000
 34     5.03003551513159   -18.92539917638786     7.98585840000000
 42     1.40898745007013   -15.37546780117871     6.31350000000000
 34     3.13143325560619   -16.18928657219856     4.64114160000000
 34     3.13143325560619   -16.18928657219856     7.98585840000000
 42    -0.48961480945527   -12.63935519698942     6.31350000000000
 34     1.23283099608079   -13.45317396800926     4.64114160000000
 34     1.23283099608079   -13.45317396800926     7.98585840000000
 42    -2.38821706898067    -9.90324259280012     6.31350000000000
 34    -0.66577126344461   -10.71706136381996     4.64114160000000
 34    -0.66577126344461   -10.71706136381996     7.98585840000000
 42    -4.28681932850608    -7.16712998861082     6.31350000000000
 34    -2.56437352297002    -7.98094875963066     4.64114160000000
 34    -2.56437352297002    -7.98094875963066     7.98585840000000
 42    -6.18542158803148    -4.43101738442152     6.31350000000000
 34    -4.46297578249542    -5.24483615544136     4.64114160000000
 34    -4.46297578249542    -5.24483615544136     7.98585840000000
 42    -8.08402384755688    -1.69490478023222     6.31350000000000
 34    -6.36157804202082    -2.50872355125206     4.64114160000000
 34    -6.36157804202082    -2.50872355125206     7.98585840000000
 34    -8.26018030154622     0.22738905293724     4.64114160000000
 34    -8.26018030154622     0.22738905293724     7.98585840000000
 42    10.37363505846696   -23.29030246828761     6.31350000000000
 42     8.47503279894155   -20.55418986409831     6.31350000000000
 34    10.19747860447761   -21.36800863511816     4.64114160000000
 34    10.19747860447761   -21.36800863511816     7.98585840000000
 42     6.57643053941615   -17.81807725990901     6.31350000000000
 34     8.29887634495221   -18.63189603092886     4.64114160000000
 34     8.29887634495221   -18.63189603092886     7.98585840000000