CRYSTAL
PRIMVEC
 15.44649659663436 -21.72405285984046 0.00000000000000
 -33.22177502826547 2.77265357377659 0.00000000000000
 0.00000000000000 0.00000000000000 19.57178440000000
PRIMCOORD
 453 1
 16   -23.94725661255135    -9.90001205469643    -1.58592600000000
 16   -23.94725661255135    -9.90001205469643     1.58592600000000
 16   -25.48198054847639    -7.18522882653658    -1.58592600000000
 16   -25.48198054847639    -7.18522882653658     1.58592600000000
 42   -28.58452078327028    -3.56395042943101     0.00000000000000
 16   -27.01670448440143    -4.47044559837673    -1.58592600000000
 16   -27.01670448440143    -4.47044559837673     1.58592600000000
 42   -30.11924471919532    -0.84916720127116     0.00000000000000
 16   -28.55142842032646    -1.75566237021688    -1.58592600000000
 16   -28.55142842032646    -1.75566237021688     1.58592600000000
 42   -31.65396865512036     1.86561602688869     0.00000000000000
 16   -30.08615235625151     0.95912085794297    -1.58592600000000
 16   -30.08615235625151     0.95912085794297     1.58592600000000
 42   -17.74219599441104   -17.14365360479193     0.00000000000000
 16   -16.17437969554219   -18.05014877373765    -1.58592600000000
 16   -16.17437969554219   -18.05014877373765     1.58592600000000
 42   -19.27691993033608   -14.42887037663208     0.00000000000000
 16   -17.70910363146723   -15.33536554557780    -1.58592600000000
 16   -17.70910363146723   -15.33536554557780     1.58592600000000
 42   -20.81164386626112   -11.71408714847223     0.00000000000000
 16   -19.24382756739227   -12.62058231741795    -1.58592600000000
 16   -19.24382756739227   -12.62058231741795     1.58592600000000
 42   -22.34636780218616    -8.99930392031238     0.00000000000000
 16   -20.77855150331730    -9.90579908925810    -1.58592600000000
 16   -20.77855150331730    -9.90579908925810     1.58592600000000
 42   -23.88109173811120    -6.28452069215253     0.00000000000000
 16   -22.31327543924235    -7.19101586109825    -1.58592600000000
 16   -22.31327543924235    -7.19101586109825     1.58592600000000
 42   -25.41581567403624    -3.56973746399268     0.00000000000000
 16   -23.84799937516738    -4.47623263293841    -1.58592600000000
 16   -23.84799937516738    -4.47623263293841     1.58592600000000
 42   -26.95053960996128    -0.85495423583283     0.00000000000000
 16   -25.38272331109242    -1.76144940477856    -1.58592600000000
 16   -25.38272331109242    -1.76144940477856     1.58592600000000
 42   -28.48526354588632     1.85982899232702     0.00000000000000
 16   -26.91744724701746     0.95333382338129    -1.58592600000000
 16   -26.91744724701746     0.95333382338129     1.58592600000000
 42   -14.57349088517700   -17.14944063935360     0.00000000000000
 16   -13.00567458630814   -18.05593580829932    -1.58592600000000
 16   -13.00567458630814   -18.05593580829932     1.58592600000000
 42   -16.10821482110203   -14.43465741119375     0.00000000000000
 16   -14.54039852223318   -15.34115258013948    -1.58592600000000
 16   -14.54039852223318   -15.34115258013948     1.58592600000000
 42   -17.64293875702707   -11.71987418303390     0.00000000000000
 16   -16.07512245815822   -12.62636935197963    -1.58592600000000
 16   -16.07512245815822   -12.62636935197963     1.58592600000000
 42   -19.17766269295212    -9.00509095487405     0.00000000000000
 16   -17.60984639408326    -9.91158612381978    -1.58592600000000
 16   -17.60984639408326    -9.91158612381978     1.58592600000000
 42   -20.71238662887716    -6.29030772671420     0.00000000000000
 16   -19.14457033000830    -7.19680289565993    -1.58592600000000
 16   -19.14457033000830    -7.19680289565993     1.58592600000000
 42   -22.24711056480220    -3.57552449855436     0.00000000000000
 16   -20.67929426593334    -4.48201966750008    -1.58592600000000
 16   -20.67929426593334    -4.48201966750008     1.58592600000000
 42   -23.78183450072723    -0.86074127039451     0.00000000000000
 16   -22.21401820185838    -1.76723643934023    -1.58592600000000
 16   -22.21401820185838    -1.76723643934023     1.58592600000000
 42   -25.31655843665228     1.85404195776534     0.00000000000000
 16   -23.74874213778342     0.94754678881962    -1.58592600000000
 16   -23.74874213778342     0.94754678881962     1.58592600000000
 42   -11.40478577594295   -17.15522767391527     0.00000000000000
 16    -9.83696947707410   -18.06172284286100    -1.58592600000000
 16    -9.83696947707410   -18.06172284286100     1.58592600000000
 42   -12.93950971186799   -14.44044444575543     0.00000000000000
 16   -11.37169341299914   -15.34693961470115    -1.58592600000000
 16   -11.37169341299914   -15.34693961470115     1.58592600000000
 42   -14.47423364779303   -11.72566121759558     0.00000000000000
 16   -12.90641734892418   -12.63215638654130    -1.58592600000000
 16   -12.90641734892418   -12.63215638654130     1.58592600000000
 42   -16.00895758371807    -9.01087798943573     0.00000000000000
 16   -14.44114128484922    -9.91737315838145    -1.58592600000000
 16   -14.44114128484922    -9.91737315838145     1.58592600000000
 42   -17.54368151964311    -6.29609476127588     0.00000000000000
 16   -15.97586522077425    -7.20258993022160    -1.58592600000000
 16   -15.97586522077425    -7.20258993022160     1.58592600000000
 42   -19.07840545556815    -3.58131153311603     0.00000000000000
 16   -17.51058915669929    -4.48780670206176    -1.58592600000000
 16   -17.51058915669929    -4.48780670206176     1.58592600000000
 42   -20.61312939149319    -0.86652830495618     0.00000000000000
 16   -19.04531309262433    -1.77302347390191    -1.58592600000000
 16   -19.04531309262433    -1.77302347390191     1.58592600000000
 42   -22.14785332741823     1.84825492320367     0.00000000000000
 16   -20.58003702854937     0.94175975425794    -1.58592600000000
 16   -20.58003702854937     0.94175975425794     1.58592600000000
 42    -8.23608066670891   -17.16101470847695     0.00000000000000
 16    -6.66826436784006   -18.06750987742267    -1.58592600000000
 16    -6.66826436784006   -18.06750987742267     1.58592600000000
 42    -9.77080460263395   -14.44623148031710     0.00000000000000
 16    -8.20298830376509   -15.35272664926282    -1.58592600000000
 16    -8.20298830376509   -15.35272664926282     1.58592600000000
 42   -11.30552853855899   -11.73144825215725     0.00000000000000
 16    -9.73771223969013   -12.63794342110297    -1.58592600000000
 16    -9.73771223969013   -12.63794342110297     1.58592600000000
 42   -12.84025247448403    -9.01666502399740     0.00000000000000
 16   -11.27243617561517    -9.92316019294313    -1.58592600000000
 16   -11.27243617561517    -9.92316019294313     1.58592600000000
 42   -14.37497641040907    -6.30188179583755     0.00000000000000
 16   -12.80716011154021    -7.20837696478328    -1.58592600000000
 16   -12.80716011154021    -7.20837696478328     1.58592600000000
 42   -15.90970034633411    -3.58709856767770     0.00000000000000
 16   -14.34188404746525    -4.49359373662343    -1.58592600000000
 16   -14.34188404746525    -4.49359373662343     1.58592600000000
 42   -17.44442428225915    -0.87231533951785     0.00000000000000
 16   -15.87660798339029    -1.77881050846358    -1.58592600000000
 16   -15.87660798339029    -1.77881050846358     1.58592600000000
 16   -17.41133191931533     0.93597271969627    -1.58592600000000
 16   -17.41133191931533     0.93597271969627     1.58592600000000
 42    -3.53265162154983   -19.88158497119847     0.00000000000000
 42    -5.06737555747487   -17.16680174303862     0.00000000000000
 16    -3.49955925860601   -18.07329691198435    -1.58592600000000
 16    -3.49955925860601   -18.07329691198435     1.58592600000000
 42    -6.60209949339991   -14.45201851487877     0.00000000000000
 16    -5.03428319453105   -15.35851368382450    -1.58592600000000
 16    -5.03428319453105   -15.35851368382450     1.58592600000000
 42    -8.13682342932495   -11.73723528671892     0.00000000000000
 16    -6.56900713045609   -12.64373045566465    -1.58592600000000
 16    -6.56900713045609   -12.64373045566465     1.58592600000000
 42    -9.67154736524999    -9.02245205855908     0.00000000000000
 16    -8.10373106638113    -9.92894722750480    -1.58592600000000
 16    -8.10373106638113    -9.92894722750480     1.58592600000000
 42   -11.20627130117503    -6.30766883039922     0.00000000000000
 16    -9.63845500230617    -7.21416399934495    -1.58592600000000
 16    -9.63845500230617    -7.21416399934495     1.58592600000000
 42   -12.74099523710006    -3.59288560223938     0.00000000000000
 16   -11.17317893823121    -4.49938077118510    -1.58592600000000
 16   -11.17317893823121    -4.49938077118510     1.58592600000000
 42   -14.27571917302510    -0.87810237407953     0.00000000000000
 16   -12.70790287415625    -1.78459754302525    -1.58592600000000
 16   -12.70790287415625    -1.78459754302525     1.58592600000000
 16   -14.24262681008129     0.93018568513460    -1.58592600000000
 16   -14.24262681008129     0.93018568513460     1.58592600000000
 42    -0.36394651231578   -19.88737200576015     0.00000000000000
 42    -1.89867044824082   -17.17258877760030     0.00000000000000
 16    -0.33085414937197   -18.07908394654602    -1.58592600000000
 16    -0.33085414937197   -18.07908394654602     1.58592600000000
 42    -3.43339438416586   -14.45780554944045     0.00000000000000
 16    -1.86557808529701   -15.36430071838617    -1.58592600000000
 16    -1.86557808529701   -15.36430071838617     1.58592600000000
 42    -4.96811832009090   -11.74302232128060     0.00000000000000
 16    -3.40030202122204   -12.64951749022632    -1.58592600000000
 16    -3.40030202122204   -12.64951749022632     1.58592600000000
 42    -6.50284225601594    -9.02823909312075     0.00000000000000
 16    -4.93502595714708    -9.93473426206647    -1.58592600000000
 16    -4.93502595714708    -9.93473426206647     1.58592600000000
 42    -8.03756619194098    -6.31345586496090     0.00000000000000
 16    -6.46974989307212    -7.21995103390662    -1.58592600000000
 16    -6.46974989307212    -7.21995103390662     1.58592600000000
 42    -9.57229012786602    -3.59867263680105     0.00000000000000
 16    -8.00447382899716    -4.50516780574678    -1.58592600000000
 16    -8.00447382899716    -4.50516780574678     1.58592600000000
 42   -11.10701406379106    -0.88388940864120     0.00000000000000
 16    -9.53919776492220    -1.79038457758693    -1.58592600000000
 16    -9.53919776492220    -1.79038457758693     1.58592600000000
 16   -11.07392170084724     0.92439865057292    -1.58592600000000
 16   -11.07392170084724     0.92439865057292     1.58592600000000
 42     2.80475859691826   -19.89315904032182     0.00000000000000
 42     1.27003466099322   -17.17837581216197     0.00000000000000
 16     2.83785095986208   -18.08487098110770    -1.58592600000000
 16     2.83785095986208   -18.08487098110770     1.58592600000000
 42    -0.26468927493182   -14.46359258400212     0.00000000000000
 16     1.30312702393704   -15.37008775294785    -1.58592600000000
 16     1.30312702393704   -15.37008775294785     1.58592600000000
 42    -1.79941321085686   -11.74880935584227     0.00000000000000
 16    -0.23159691198800   -12.65530452478800    -1.58592600000000
 16    -0.23159691198800   -12.65530452478800     1.58592600000000
 42    -3.33413714678190    -9.03402612768242     0.00000000000000
 16    -1.76632084791304    -9.94052129662815    -1.58592600000000
 16    -1.76632084791304    -9.94052129662815     1.58592600000000
 42    -4.86886108270694    -6.31924289952257     0.00000000000000
 16    -3.30104478383808    -7.22573806846830    -1.58592600000000
 16    -3.30104478383808    -7.22573806846830     1.58592600000000
 42    -6.40358501863197    -3.60445967136273     0.00000000000000
 16    -4.83576871976312    -4.51095484030845    -1.58592600000000
 16    -4.83576871976312    -4.51095484030845     1.58592600000000
 42    -7.93830895455701    -0.88967644320288     0.00000000000000
 16    -6.37049265568816    -1.79617161214860    -1.58592600000000
 16    -6.37049265568816    -1.79617161214860     1.58592600000000
 42     5.97346370615231   -19.89894607488349     0.00000000000000
 16     7.54128000502116   -20.80544124382921    -1.58592600000000
 16     7.54128000502116   -20.80544124382921     1.58592600000000
 42     4.43873977022727   -17.18416284672364     0.00000000000000
 16     6.00655606909612   -18.09065801566937    -1.58592600000000
 16     6.00655606909612   -18.09065801566937     1.58592600000000
 42     2.90401583430223   -14.46937961856380     0.00000000000000
 16     4.47183213317108   -15.37587478750952    -1.58592600000000
 16     4.47183213317108   -15.37587478750952     1.58592600000000
 42     1.36929189837719   -11.75459639040395     0.00000000000000
 16     2.93710819724604   -12.66109155934967    -1.58592600000000
 16     2.93710819724604   -12.66109155934967     1.58592600000000
 42    -0.16543203754785    -9.03981316224410     0.00000000000000
 16     1.40238426132100    -9.94630833118982    -1.58592600000000
 16     1.40238426132100    -9.94630833118982     1.58592600000000
 42    -1.70015597347289    -6.32502993408425     0.00000000000000
 16    -0.13233967460404    -7.23152510302997    -1.58592600000000
 16    -0.13233967460404    -7.23152510302997     1.58592600000000
 42    -3.23487990939793    -3.61024670592440     0.00000000000000
 16    -1.66706361052908    -4.51674187487013    -1.58592600000000
 16    -1.66706361052908    -4.51674187487013     1.58592600000000
 42    -4.76960384532297    -0.89546347776455     0.00000000000000
 16    -3.20178754645411    -1.80195864671028    -1.58592600000000
 16    -3.20178754645411    -1.80195864671028     1.58592600000000
 42     9.14216881538635   -19.90473310944517     0.00000000000000
 16    10.70998511425520   -20.81122827839089    -1.58592600000000
 16    10.70998511425520   -20.81122827839089     1.58592600000000
 42     7.60744487946131   -17.18994988128532     0.00000000000000
 16     9.17526117833016   -18.09644505023104    -1.58592600000000
 16     9.17526117833016   -18.09644505023104     1.58592600000000
 42     6.07272094353627   -14.47516665312547     0.00000000000000
 16     7.64053724240512   -15.38166182207119    -1.58592600000000
 16     7.64053724240512   -15.38166182207119     1.58592600000000
 42     4.53799700761123   -11.76038342496562     0.00000000000000
 16     6.10581330648008   -12.66687859391135    -1.58592600000000
 16     6.10581330648008   -12.66687859391135     1.58592600000000
 42     3.00327307168619    -9.04560019680577     0.00000000000000
 16     4.57108937055504    -9.95209536575150    -1.58592600000000
 16     4.57108937055504    -9.95209536575150     1.58592600000000
 42     1.46854913576115    -6.33081696864592     0.00000000000000
 16     3.03636543463000    -7.23731213759165    -1.58592600000000
 16     3.03636543463000    -7.23731213759165     1.58592600000000
 42    -0.06617480016389    -3.61603374048607     0.00000000000000
 16     1.50164149870496    -4.52252890943180    -1.58592600000000
 16     1.50164149870496    -4.52252890943180     1.58592600000000
 42    -1.60089873608892    -0.90125051232623     0.00000000000000
 16    -0.03308243722007    -1.80774568127195    -1.58592600000000
 16    -0.03308243722007    -1.80774568127195     1.58592600000000
 42    12.31087392462039   -19.91052014400684     0.00000000000000
 16    13.87869022348925   -20.81701531295256    -1.58592600000000
 16    13.87869022348925   -20.81701531295256     1.58592600000000
 42    10.77614998869535   -17.19573691584699     0.00000000000000
 16    12.34396628756421   -18.10223208479272    -1.58592600000000
 16    12.34396628756421   -18.10223208479272     1.58592600000000
 42     9.24142605277031   -14.48095368768715     0.00000000000000
 16    10.80924235163917   -15.38744885663287    -1.58592600000000
 16    10.80924235163917   -15.38744885663287     1.58592600000000
 42     7.70670211684527   -11.76617045952730     0.00000000000000
 42     6.17197818092023    -9.05138723136745     0.00000000000000
 42   -17.97505350632274   -17.04279466280584     6.31350000000000
 34   -16.24407644495134   -17.84912400837702     4.64114160000000
 34   -16.24407644495134   -17.84912400837702     7.98585840000000
 42   -19.90586558090204   -14.32728805532578     6.31350000000000
 34   -18.17488851953064   -15.13361740089696     4.64114160000000
 34   -18.17488851953064   -15.13361740089696     7.98585840000000
 42   -21.83667765548133   -11.61178144784572     6.31350000000000
 34   -20.10570059410993   -12.41811079341690     4.64114160000000
 34   -20.10570059410993   -12.41811079341690     7.98585840000000
 42   -23.76748973006063    -8.89627484036567     6.31350000000000
 34   -22.03651266868922    -9.70260418593684     4.64114160000000
 34   -22.03651266868922    -9.70260418593684     7.98585840000000
 42   -25.69830180463992    -6.18076823288561     6.31350000000000
 34   -23.96732474326852    -6.98709757845679     4.64114160000000
 34   -23.96732474326852    -6.98709757845679     7.98585840000000
 42   -27.62911387921922    -3.46526162540555     6.31350000000000
 34   -25.89813681784782    -4.27159097097673     4.64114160000000
 34   -25.89813681784782    -4.27159097097673     7.98585840000000
 42   -29.55992595379851    -0.74975501792549     6.31350000000000
 34   -27.82894889242711    -1.55608436349667     4.64114160000000
 34   -27.82894889242711    -1.55608436349667     7.98585840000000
 42   -31.49073802837781     1.96575158955457     6.31350000000000
 34   -29.75976096700641     1.15942224398339     4.64114160000000
 34   -29.75976096700641     1.15942224398339     7.98585840000000
 42   -14.71281451975531   -16.74742136934100     6.31350000000000
 34   -12.98183745838391   -17.55375071491218     4.64114160000000
 34   -12.98183745838391   -17.55375071491218     7.98585840000000
 42   -16.64362659433461   -14.03191476186095     6.31350000000000
 34   -14.91264953296320   -14.83824410743212     4.64114160000000
 34   -14.91264953296320   -14.83824410743212     7.98585840000000
 42   -18.57443866891390   -11.31640815438089     6.31350000000000
 34   -16.84346160754250   -12.12273749995207     4.64114160000000
 34   -16.84346160754250   -12.12273749995207     7.98585840000000
 42   -20.50525074349320    -8.60090154690083     6.31350000000000
 34   -18.77427368212179    -9.40723089247201     4.64114160000000
 34   -18.77427368212179    -9.40723089247201     7.98585840000000
 42   -22.43606281807249    -5.88539493942077     6.31350000000000
 34   -20.70508575670109    -6.69172428499195     4.64114160000000
 34   -20.70508575670109    -6.69172428499195     7.98585840000000
 42   -24.36687489265179    -3.16988833194071     6.31350000000000
 34   -22.63589783128039    -3.97621767751189     4.64114160000000
 34   -22.63589783128039    -3.97621767751189     7.98585840000000
 42   -26.29768696723108    -0.45438172446065     6.31350000000000
 34   -24.56670990585968    -1.26071107003183     4.64114160000000
 34   -24.56670990585968    -1.26071107003183     7.98585840000000
 42   -28.22849904181038     2.26112488301940     6.31350000000000
 34   -26.49752198043898     1.45479553744823     4.64114160000000
 34   -26.49752198043898     1.45479553744823     7.98585840000000
 42    -9.51976345860859   -19.16755468335622     6.31350000000000
 42   -11.45057553318788   -16.45204807587617     6.31350000000000
 34    -9.71959847181648   -17.25837742144734     4.64114160000000
 34    -9.71959847181648   -17.25837742144734     7.98585840000000
 42   -13.38138760776718   -13.73654146839611     6.31350000000000
 34   -11.65041054639577   -14.54287081396729     4.64114160000000
 34   -11.65041054639577   -14.54287081396729     7.98585840000000
 42   -15.31219968234647   -11.02103486091605     6.31350000000000
 34   -13.58122262097507   -11.82736420648723     4.64114160000000
 34   -13.58122262097507   -11.82736420648723     7.98585840000000
 42   -17.24301175692577    -8.30552825343599     6.31350000000000
 34   -15.51203469555436    -9.11185759900717     4.64114160000000
 34   -15.51203469555436    -9.11185759900717     7.98585840000000
 42   -19.17382383150506    -5.59002164595594     6.31350000000000
 34   -17.44284677013366    -6.39635099152712     4.64114160000000
 34   -17.44284677013366    -6.39635099152712     7.98585840000000
 42   -21.10463590608435    -2.87451503847588     6.31350000000000
 34   -19.37365884471295    -3.68084438404706     4.64114160000000
 34   -19.37365884471295    -3.68084438404706     7.98585840000000
 42   -23.03544798066365    -0.15900843099582     6.31350000000000
 34   -21.30447091929225    -0.96533777656700     4.64114160000000
 34   -21.30447091929225    -0.96533777656700     7.98585840000000
 34   -23.23528299387155     1.75016883091306     4.64114160000000
 34   -23.23528299387155     1.75016883091306     7.98585840000000
 42    -6.25752447204116   -18.87218138989139     6.31350000000000
 34    -4.52654741066975   -19.67851073546257     4.64114160000000
 34    -4.52654741066975   -19.67851073546257     7.98585840000000
 42    -8.18833654662045   -16.15667478241133     6.31350000000000
 34    -6.45735948524905   -16.96300412798251     4.64114160000000
 34    -6.45735948524905   -16.96300412798251     7.98585840000000
 42   -10.11914862119975   -13.44116817493127     6.31350000000000
 34    -8.38817155982834   -14.24749752050245     4.64114160000000
 34    -8.38817155982834   -14.24749752050245     7.98585840000000
 42   -12.04996069577904   -10.72566156745121     6.31350000000000
 34   -10.31898363440764   -11.53199091302239     4.64114160000000
 34   -10.31898363440764   -11.53199091302239     7.98585840000000
 42   -13.98077277035834    -8.01015495997116     6.31350000000000
 34   -12.24979570898693    -8.81648430554234     4.64114160000000
 34   -12.24979570898693    -8.81648430554234     7.98585840000000
 42   -15.91158484493763    -5.29464835249110     6.31350000000000
 34   -14.18060778356623    -6.10097769806228     4.64114160000000
 34   -14.18060778356623    -6.10097769806228     7.98585840000000
 42   -17.84239691951693    -2.57914174501104     6.31350000000000
 34   -16.11141985814552    -3.38547109058222     4.64114160000000
 34   -16.11141985814552    -3.38547109058222     7.98585840000000
 42   -19.77320899409622     0.13636486246902     6.31350000000000
 34   -18.04223193272482    -0.66996448310216     4.64114160000000
 34   -18.04223193272482    -0.66996448310216     7.98585840000000
 42    -2.99528548547373   -18.57680809642655     6.31350000000000
 34    -1.26430842410232   -19.38313744199773     4.64114160000000
 34    -1.26430842410232   -19.38313744199773     7.98585840000000
 42    -4.92609756005302   -15.86130148894649     6.31350000000000
 34    -3.19512049868162   -16.66763083451767     4.64114160000000
 34    -3.19512049868162   -16.66763083451767     7.98585840000000
 42    -6.85690963463232   -13.14579488146644     6.31350000000000
 34    -5.12593257326091   -13.95212422703762     4.64114160000000
 34    -5.12593257326091   -13.95212422703762     7.98585840000000
 42    -8.78772170921161   -10.43028827398638     6.31350000000000
 34    -7.05674464784021   -11.23661761955756     4.64114160000000
 34    -7.05674464784021   -11.23661761955756     7.98585840000000
 42   -10.71853378379090    -7.71478166650632     6.31350000000000
 34    -8.98755672241950    -8.52111101207750     4.64114160000000
 34    -8.98755672241950    -8.52111101207750     7.98585840000000
 42   -12.64934585837020    -4.99927505902626     6.31350000000000
 34   -10.91836879699880    -5.80560440459744     4.64114160000000
 34   -10.91836879699880    -5.80560440459744     7.98585840000000
 42   -14.58015793294950    -2.28376845154621     6.31350000000000
 34   -12.84918087157809    -3.09009779711738     4.64114160000000
 34   -12.84918087157809    -3.09009779711738     7.98585840000000
 42   -16.51097000752879     0.43173815593385     6.31350000000000
 34   -14.77999294615739    -0.37459118963733     4.64114160000000
 34   -14.77999294615739    -0.37459118963733     7.98585840000000
 42     0.26695350109370   -18.28143480296172     6.31350000000000
 34     1.99793056246511   -19.08776414853290     4.64114160000000
 34     1.99793056246511   -19.08776414853290     7.98585840000000
 42    -1.66385857348559   -15.56592819548166     6.31350000000000
 34     0.06711848788581   -16.37225754105284     4.64114160000000
 34     0.06711848788581   -16.37225754105284     7.98585840000000
 42    -3.59467064806488   -12.85042158800160     6.31350000000000
 34    -1.86369358669348   -13.65675093357278     4.64114160000000
 34    -1.86369358669348   -13.65675093357278     7.98585840000000
 42    -5.52548272264418   -10.13491498052154     6.31350000000000
 34    -3.79450566127277   -10.94124432609272     4.64114160000000
 34    -3.79450566127277   -10.94124432609272     7.98585840000000
 42    -7.45629479722347    -7.41940837304148     6.31350000000000
 34    -5.72531773585207    -8.22573771861266     4.64114160000000
 34    -5.72531773585207    -8.22573771861266     7.98585840000000
 42    -9.38710687180277    -4.70390176556143     6.31350000000000
 34    -7.65612981043137    -5.51023111113261     4.64114160000000
 34    -7.65612981043137    -5.51023111113261     7.98585840000000
 42   -11.31791894638206    -1.98839515808137     6.31350000000000
 34    -9.58694188501066    -2.79472450365255     4.64114160000000
 34    -9.58694188501066    -2.79472450365255     7.98585840000000
 42   -13.24873102096136     0.72711144939869     6.31350000000000
 34   -11.51775395958995    -0.07921789617249     4.64114160000000
 34   -11.51775395958995    -0.07921789617249     7.98585840000000
 42     5.46000456224043   -20.70156811697694     6.31350000000000
 42     3.52919248766114   -17.98606150949688     6.31350000000000
 34     5.26016954903254   -18.79239085506806     4.64114160000000
 34     5.26016954903254   -18.79239085506806     7.98585840000000
 42     1.59838041308184   -15.27055490201682     6.31350000000000
 34     3.32935747445325   -16.07688424758800     4.64114160000000
 34     3.32935747445325   -16.07688424758800     7.98585840000000
 42    -0.33243166149745   -12.55504829453676     6.31350000000000
 34     1.39854539987395   -13.36137764010794     4.64114160000000
 34     1.39854539987395   -13.36137764010794     7.98585840000000
 42    -2.26324373607675    -9.83954168705671     6.31350000000000
 34    -0.53226667470534   -10.64587103262788     4.64114160000000
 34    -0.53226667470534   -10.64587103262788     7.98585840000000
 42    -4.19405581065604    -7.12403507957665     6.31350000000000
 34    -2.46307874928464    -7.93036442514783     4.64114160000000
 34    -2.46307874928464    -7.93036442514783     7.98585840000000
 42    -6.12486788523534    -4.40852847209659     6.31350000000000
 34    -4.39389082386394    -5.21485781766777     4.64114160000000
 34    -4.39389082386394    -5.21485781766777     7.98585840000000
 42    -8.05567995981463    -1.69302186461653     6.31350000000000
 34    -6.32470289844323    -2.49935121018771     4.64114160000000
 34    -6.32470289844323    -2.49935121018771     7.98585840000000
 34    -8.25551497302252     0.21615539729235     4.64114160000000
 34    -8.25551497302252     0.21615539729235     7.98585840000000
 42     8.72224354880786   -20.40619482351210     6.31350000000000
 34    10.45322061017927   -21.21252416908328     4.64114160000000
 34    10.45322061017927   -21.21252416908328     7.98585840000000
 42     6.79143147422857   -17.69068821603204     6.31350000000000
 34     8.52240853559997   -18.49701756160322     4.64114160000000
 34     8.52240853559997   -18.49701756160322     7.98585840000000
 42     4.86061939964927   -14.97518160855198     6.31350000000000
 34     6.59159646102068   -15.78151095412317     4.64114160000000
 34     6.59159646102068   -15.78151095412317     7.98585840000000
 42     2.92980732506998   -12.25967500107193     6.31350000000000
 34     4.66078438644138   -13.06600434664311     4.64114160000000
 34     4.66078438644138   -13.06600434664311     7.98585840000000
 42     0.99899525049068    -9.54416839359187     6.31350000000000
 34     2.72997231186209   -10.35049773916305     4.64114160000000
 34     2.72997231186209   -10.35049773916305     7.98585840000000
 42    -0.93181682408861    -6.82866178611181     6.31350000000000
 34     0.79916023728279    -7.63499113168299     4.64114160000000
 34     0.79916023728279    -7.63499113168299     7.98585840000000
 42    -2.86262889866791    -4.11315517863175     6.31350000000000
 34    -1.13165183729650    -4.91948452420293     4.64114160000000
 34    -1.13165183729650    -4.91948452420293     7.98585840000000
 42    -4.79344097324720    -1.39764857115169     6.31350000000000
 34    -3.06246391187580    -2.20397791672287     4.64114160000000
 34    -3.06246391187580    -2.20397791672287     7.98585840000000
 42    11.98448253537529   -20.11082153004726     6.31350000000000
 34    13.71545959674670   -20.91715087561845     4.64114160000000
 34    13.71545959674670   -20.91715087561845     7.98585840000000
 42    10.05367046079600   -17.39531492256721     6.31350000000000
 34    11.78464752216740   -18.20164426813838     4.64114160000000
 34    11.78464752216740   -18.20164426813838     7.98585840000000
 42     8.12285838621670   -14.67980831508715     6.31350000000000
 34     9.85383544758811   -15.48613766065833     4.64114160000000
 34     9.85383544758811   -15.48613766065833     7.98585840000000
 42     6.19204631163741   -11.96430170760709     6.31350000000000
 34     7.92302337300881   -12.77063105317827     4.64114160000000
 34     7.92302337300881   -12.77063105317827     7.98585840000000
 42     4.26123423705811    -9.24879510012703     6.31350000000000
 34     5.99221129842952   -10.05512444569821     4.64114160000000
 34     5.99221129842952   -10.05512444569821     7.98585840000000