LAMMPS data file via write_data, version 27 Jun 2024, timestep = 90000, units = metal

540 atoms
6 atom types

0 37.59365801343109 xlo xhi
0 21.52779524830364 ylo yhi
-0.33717627728717675 9.658060163062126 zlo zhi
-27.49615054720427 0 0 xy xz yz

Masses

1 95.95
2 32.06
3 32.06
4 95.95
5 78.971
6 78.971

Atoms # atomic

455 5 -13.084410983792587 10.737017172132962 6.3071755320864815 1 1 0
456 6 -13.089019121320122 10.721665638530508 9.61990482716516 1 1 0
170 1 -10.444787478178451 9.426881920823185 1.4660202190051121 0 -2 0
479 5 -5.151844623992827 7.201976120957671 6.292814291418659 1 1 0
480 6 -5.1563405998895195 7.19477652109745 9.606975177738535 1 1 0
478 4 -6.995416941231384 7.643758257407765 7.949903768791254 1 1 0
202 3 -5.576297117260944 9.616104123799369 3.118522930984524 0 -2 0
201 2 -5.510234549436817 9.61168851479163 0.009175496418918324 0 -2 0
169 3 -3.400909645369519 7.344891607296296 3.1470551250713625 0 -1 0
475 4 -4.584580514145454 5.365561663866286 7.950318704135618 1 1 0
167 1 -5.150014644379968 7.854280002203965 1.5755931728935961 0 -1 0
481 4 -9.414409180908974 9.913456287053531 7.956519768658909 1 1 0
483 6 -7.574986122579119 9.468816216661923 9.612949974686808 1 1 0
482 5 -7.564978963701707 9.481771677927501 6.298768122677846 1 1 0
171 2 -8.656297368465976 8.898896915293603 -0.04606154601595317 0 -2 0
172 3 -8.723401019371083 8.936998239469222 3.065442208645164 0 -2 0
141 2 -6.5182030293381095 6.651710503161428 0.00882175953703002 0 -1 0
142 3 -6.550887956302286 6.6653638507976565 3.119701953648288 0 -1 0
513 6 -4.494851189965929 10.456171499359064 9.620081100782594 1 1 0
508 4 -3.915053614000015 8.635732389449915 7.954144691970179 1 1 0
140 1 -8.294823368974292 7.158841079569206 1.54126429252468 0 -1 0
139 3 -4.365737601127144 4.394521640625124 3.1270270273223746 0 -1 0
138 2 -4.373367454952615 4.413149280525051 0.015826652488570278 0 -1 0
512 5 -4.487138758699136 10.476282669351662 6.305275803756863 1 1 0
168 2 -3.375811510097727 7.367380261560847 0.0353821948181755 0 -1 0
200 1 -7.303751138496533 10.113833820650912 1.5249972742276319 0 -2 0
137 1 -6.133932790595713 4.9005572088211 1.5758375461997525 0 -1 0
511 4 -6.333929428801326 10.913143351417952 7.963278834648021 1 1 0
164 1 -2.986121456015187 5.597767700648346 1.5800653282583954 0 -1 0
197 1 -2.0095267017943916 8.559899765455663 1.6124418986958475 0 -1 0
165 2 -1.2281341182756602 5.125895152652497 0.015741004157698104 0 -1 0
166 3 -1.2196389606834732 5.069406003838352 3.1268396531120626 0 -1 0
256 1 1.1212050642263087 9.278219476954614 1.633935153786496 0 -2 0
227 2 2.8689582828626374 8.788704011114302 0.06890138434932193 0 -1 0
228 3 2.8879416393835378 8.760698607336554 3.1779483193958904 0 -1 0
276 1 4.241951055716314 9.995188666518334 1.619618512147149 0 -2 0
476 5 -2.746692212605543 4.918146792611691 6.292914830868923 1 1 0
477 6 -2.743359556087356 4.921475296835595 9.60724845209033 1 1 0
505 4 -1.50343786589171 6.356931901485124 7.949625437428385 1 1 0
472 4 -2.172946922777975 3.0873634753384382 7.954688368330937 1 1 0
473 5 -0.3367118832807817 2.640937401692851 6.299208253761176 1 1 0
474 6 -0.32825480079439634 2.6529148676169583 9.613988590885 1 1 0
506 5 0.33603278371999273 5.9153339053546565 6.292409135698967 1 1 0
507 6 0.3387552212934063 5.913065059855125 9.605365977094525 1 1 0
502 4 0.9108184565530667 4.084207203704629 7.951021368306658 1 1 0
469 4 0.2520136703571237 0.8190659646111181 7.966236571364629 1 2 0
224 1 3.2764304673020694 7.007132914425403 1.5990684158267523 0 -1 0
535 4 1.5861041205825646 7.341807338801243 7.949335719941416 1 1 0
504 6 2.7583911002788186 3.6547963899043876 9.608533266026544 1 1 0
503 5 2.7509653728403554 3.6459633883814124 6.294650535338423 1 1 0
470 5 2.0942049091244024 0.378201304746641 6.311772774666709 1 2 0
198 2 -0.24473073921651808 8.083662506939788 0.061579193034730695 0 -1 0
199 3 -0.2524593572961608 8.042634842759703 3.1718225215872544 0 -1 0
196 3 1.9177191185513498 5.7574294606888525 3.131616448846225 0 -1 0
195 2 1.9026393138352014 5.827846722595562 0.02074911814017817 0 -1 0
194 1 0.1528543528214171 6.30069258897111 1.5910574009428269 0 -1 0
192 2 4.04385267514218 3.5598944386591147 -0.0543685419001606 0 -1 0
193 3 4.071432820272794 3.4566554052266674 3.05543028149563 0 -1 0
509 5 -2.072728970346172 8.194311578769435 6.295973338014982 1 1 0
510 6 -2.0783700836597023 8.180572778350605 9.612609855919791 1 1 0
191 1 2.305994114245408 4.029343097752535 1.5279517680287305 0 -1 0
536 5 3.427640169648187 6.905771899625034 6.291595248782126 1 1 0
537 6 3.4313202218602212 6.900508042623539 9.6051363091618 1 1 0
499 4 3.3411451564417893 1.8256255395360106 7.9606002233237 1 2 0
161 1 -0.8273731067372105 3.337978550379145 1.5339466498013508 0 -1 0
162 2 0.912839085656965 2.869759369585771 -0.05083677696850411 0 -1 0
163 3 0.9507955664904708 2.786707328285482 3.0584877862404145 0 -1 0
188 1 4.440149276968134 1.7403132910955605 1.433683825296527 0 -1 0
538 4 -0.8323581837261187 9.617272819504123 7.961265211202034 1 1 0
283 5 1.0097729852213984 9.176030985207857 6.301064788735469 0 1 0
284 6 1.0097377939631706 9.159681413740607 9.614739633680383 0 1 0
158 1 1.3133362369334785 1.0641195954477998 1.4486944441053882 0 -1 0
532 4 4.0074938760653085 5.079803091332668 7.948390157941687 1 1 0
312 6 4.100412743886393 10.141585973991727 9.619344212048023 0 1 0
311 5 4.101755001719167 10.157498271815724 6.305631285816876 0 1 0
307 4 4.683564154404329 8.326380491854604 7.952941215619803 0 1 0
159 2 3.0392326001248273 0.5900796897669078 -0.1467967858220576 0 -1 0
310 4 2.2574056205016935 10.59337218247988 7.965182959900349 0 1 0
136 3 -2.1893045405066465 2.119992729298305 3.083864109516256 0 -1 0
160 3 3.088005926128706 0.4964135013986324 2.9602754545551795 0 -1 0
471 6 2.1021239784439563 0.3959751231053895 9.624668614373157 1 2 0
230 2 -2.38189817247672 10.331426893802737 0.06069114158021547 0 -2 0
231 3 -2.4216487340120283 10.314782035635975 3.170580322000503 0 -2 0
135 2 -2.2308657599282107 2.1658281285994416 -0.027600927512161297 0 -1 0
133 3 10.061149702315086 21.372517877147803 3.0018173690696197 -1 -2 0
501 6 5.194202948323194 1.4088840477871922 9.620767281988547 1 2 0
132 2 9.990508641948349 21.428168470984858 -0.10722161980213472 -1 -2 0
225 2 5.012439539002112 6.517217195876339 0.021026910460748723 0 -1 0
226 3 5.04233981875644 6.457116515660711 3.1322967546811165 0 -1 0
500 5 5.185196916274946 1.3943051453982929 6.307586282436964 1 2 0
277 2 5.967607571353934 9.479416134960216 0.03694657046563923 0 -2 0
278 3 6.019359463196589 9.482536993095126 3.1479151934151863 0 -2 0
221 1 5.419981519022761 4.718030701316704 1.5326675116541537 0 -1 0
253 1 6.384159312217299 7.709200809122051 1.581673175542148 0 -1 0
189 2 6.174433785003152 1.265233005038892 -0.15151487762079505 0 -1 0
190 3 6.194983403644397 1.148137212667853 2.9565027818642573 0 -1 0
223 3 7.179032713554822 4.1390038987287125 3.061576461111642 0 -1 0
222 2 7.152523993717465 4.22896980157381 -0.04856965921522547 0 -1 0
250 1 8.520492897594 5.404227612519661 1.52827692863843 0 -1 0
254 2 8.104678645635268 7.1899206950610814 -0.002384920486635273 0 -1 0
255 3 8.151982344019485 7.170568021969426 3.108896009128395 0 -1 0
6 1 9.480929265957204 8.40401489918578 1.5343455118159572 -1 -1 0
33 3 9.134945383041966 10.203467600199707 3.0784836675908815 -1 -2 0
32 2 9.058456886438453 10.159150270811534 -0.030752566025946105 -1 -2 0
251 2 10.249062560437626 4.885026615810869 -0.04780404026415075 0 -1 0
3 1 11.60980218684713 6.085254528415494 1.5118094408331655 -1 -1 0
7 2 11.193557180523799 7.848164997347671 -0.04850645783933321 -1 -1 0
8 3 11.247734124239921 7.881483984080481 3.0625264974472213 -1 -1 0
58 1 12.57471056819596 9.082745175826846 1.4627089383196057 -1 -2 0
533 5 5.85171735407584 4.650554952782539 6.290936464172196 1 1 0
534 6 5.857478507331778 4.6571478658543155 9.606647246287128 1 1 0
529 4 6.440734965959201 2.8338973206659075 7.955976353692266 1 1 0
304 4 7.112436814341804 6.076859721896944 7.948001190224043 0 1 0
306 6 8.964299168244114 5.658483370448024 9.606269330835831 0 1 0
305 5 8.963092667694392 5.658411671980197 6.29091112012159 0 1 0
531 6 8.296906826308609 2.422642418834674 9.612697226335548 1 1 0
530 5 8.288884214487684 2.413769736740203 6.2993766077979325 1 1 0
526 4 8.890360453063206 0.6015354798262434 7.963092712561206 1 2 0
301 4 9.551334058701777 3.8428644495288027 7.9517824632405825 0 1 0
334 4 10.22702646180188 7.0786391987431045 7.951813899992029 0 1 0
252 3 10.272561983775246 4.838066372662737 3.0635843688800275 0 -1 0
308 5 6.531619991434194 7.898639264010901 6.294154606148531 0 1 0
309 6 6.52959670050924 7.891486567594912 9.608917113135561 0 1 0
303 6 11.408230779022333 3.4347693239771178 9.609862983457939 0 1 0
247 1 10.649324227119646 3.0837014387835837 1.471010354272604 0 -1 0
339 6 9.637336464881544 8.889189847526884 9.615552326402751 0 1 0
338 5 9.638997922321993 8.89497096104154 6.301892302254143 0 1 0
302 5 11.403540901397955 3.430014263257957 6.295797832359356 0 1 0
220 3 9.292827271734739 1.8170573060751207 2.9845306761750505 0 -1 0
219 2 9.290654295490766 1.9224894468408706 -0.12463620594735936 0 -1 0
218 1 7.550799908020902 2.412922609009276 1.447326890575904 0 -1 0
248 2 12.395388771954456 2.5664345325327136 -0.08738305603768286 0 -1 0
249 3 12.381509206048099 2.4988314888535585 3.0215580981166337 0 -1 0
337 4 7.787607828861523 9.316804560807705 7.959191992228107 0 1 0
298 4 11.998487385205385 1.6190637009616466 7.958456542343838 0 2 0
367 4 10.892673871943167 10.317743532877373 7.966580267811906 0 1 0
335 5 12.083029782296855 6.666241076165132 6.294603369224986 0 1 0
336 6 12.080623035726076 6.662960427876486 9.609213877315739 0 1 0
331 4 12.669574814177608 4.851921276321126 7.949678012400856 0 1 0
368 5 12.750462517045454 9.904958626994487 6.3095770277095955 0 1 0
369 6 12.745346955720883 9.893920302247242 9.622343506028496 0 1 0
244 1 12.77642906538141 0.7559037757984937 1.4277062641973775 0 -1 0
215 1 9.665853276833289 0.0965826862920987 1.3675139600818487 0 -1 0
216 2 -16.07595356225741 21.127790029355673 -0.18496541004375952 0 -2 0
4 2 13.336477000867376 5.529861468402788 -0.05594353234886062 -1 -1 0
5 3 13.356534401377681 5.540034813969138 3.056080495579343 -1 -1 0
364 4 13.34291636990448 8.086476795162431 7.9567288199603965 0 1 0
275 1 13.737076482408618 3.757660166305399 1.497564244007533 0 -1 0
26 1 14.69624133991187 6.757699822839326 1.480769004022829 -1 -1 0
30 3 14.33306064067161 8.575313926122414 3.0001182279383047 -1 -1 0
29 2 14.287746558747074 8.497196797180784 -0.10920926838966515 -1 -1 0
2 3 15.462405896013824 3.196617089204522 3.061332979047595 -1 -1 0
86 1 15.673276804876085 9.745363544418298 1.388705721069647 -1 -2 0
1 2 15.480703834021112 3.2179506611498767 -0.05209272553087388 -1 -1 0
28 3 16.438049615015093 6.240778413623561 3.0387040742459925 -1 -1 0
27 2 16.42949767880211 6.178530876651065 -0.07182428297473462 -1 -1 0
87 2 17.40000893438062 9.144877722478142 -0.16552503231772656 -1 -2 0
88 3 17.415781553861198 9.251314136405567 2.9428454372341846 -1 -2 0
55 1 17.790059560340048 7.423756818512468 1.4479363118630373 -1 -1 0
52 1 19.919600420528894 5.109247377721911 1.5200015692205286 -1 -1 0
57 3 19.522464275489295 6.9286554384828944 3.0217907302097533 -1 -1 0
56 2 19.534886998132258 6.8327886102921 -0.09021931662571198 -1 -1 0
117 2 20.52959153671595 9.802163767388043 -0.195171052114059 -1 -2 0
83 1 20.896552215824897 8.085903342382592 1.426320623877972 -1 -1 0
118 3 20.507171003816996 9.909065347819348 2.9139431615054656 -1 -2 0
299 5 13.847506398333422 1.2124262391861613 6.303996812178888 0 2 0
333 6 14.525272865360028 4.444214425285464 9.607902060379143 0 1 0
332 5 14.525240613324664 4.441937923958382 6.292892694028531 0 1 0
328 4 15.11397439101873 2.630130981232195 7.953121959386547 0 1 0
300 6 13.858247480336802 1.2089629701683278 9.613101718667087 0 2 0
361 4 15.787716783819016 5.86189959015384 7.949645161531995 0 1 0
329 5 16.963981760156233 2.210937443136959 6.293376659639977 0 1 0
330 6 16.96861626951904 2.217787562137494 9.609875841189268 0 1 0
363 6 17.641832846070795 5.4492681397899165 9.60491084017202 0 1 0
362 5 17.64324792543024 5.448966166752983 6.288781612238273 0 1 0
358 4 18.227648030098187 3.634308169700717 7.947454845778237 0 1 0
391 4 18.898633657905975 6.87393585387992 7.949428988160141 0 1 0
23 1 16.821026713248862 4.43186919223672 1.5141189937550317 -1 -1 0
365 5 15.20060848506754 7.679674631698399 6.298825061992707 0 1 0
366 6 15.196848646392748 7.672197097188757 9.611600499677092 0 1 0
24 2 18.574368234250784 3.874889941927556 -0.022793634720129612 -1 -1 0
25 3 18.55128604180482 3.908264011440479 3.0864902711561006 -1 -1 0
396 6 18.306956853354244 8.686557133471343 9.614534439492946 0 1 0
395 5 18.311361358705135 8.6970553071717 6.300118051283327 0 1 0
272 1 15.857302524107967 1.4316364598695346 1.490070891154549 0 -1 0
20 1 18.953921684380123 2.116738424616119 1.5499861938010704 -1 -1 0
21 2 20.719207158765297 1.5825834297373973 0.02071900763484319 -1 -1 0
22 3 20.6811694348823 1.59694208738917 3.1315324674389373 -1 -1 0
394 4 16.452383101071963 9.103935716259365 7.961250098043704 0 1 0
359 5 20.080440364175196 3.211389834967217 6.289281431608855 0 1 0
360 6 20.078072983559185 3.21601466184974 9.605197666951138 0 1 0
273 2 17.62764799633107 0.9099590977545505 -0.03706497695586267 0 -1 0
274 3 17.570845671027584 0.8758636946113728 3.074354080263402 0 -1 0
424 4 19.556127098270803 10.125705499807205 7.965186573045182 0 1 0
392 5 20.75504476728232 6.46052864116519 6.288990134854725 0 1 0
355 4 20.66388759115764 1.3965351402272559 7.954330164171036 0 2 0
393 6 20.749778721545603 6.454939453200225 9.60399563875347 0 1 0
214 3 14.484657262133084 0.18318532918971106 3.002526453016343 0 -1 0
325 4 17.55926548730858 0.4002294674506027 7.957765936957346 0 2 0
245 2 14.53459638743807 0.24686107296138168 -0.113809606200719 0 -1 0
246 3 14.486509687467487 0.18318861599524772 3.0027155262507503 0 -1 0
399 6 15.851234162830615 10.912277483758551 9.62979480452542 0 1 0
398 5 15.856017225705163 10.92470576570822 6.317569210048067 0 1 0
388 4 21.33298357590432 4.637900837029805 7.944457608670092 0 1 0
425 5 21.414353726853122 9.71890234653785 6.30430076737597 0 1 0
426 6 21.410125267528866 9.702611335299457 9.617191176346745 0 1 0
17 1 -6.409800778643112 21.344262747807967 1.5838927804393068 -1 -2 0
452 5 -10.650120237730613 8.47831553861333 6.293644720704724 1 1 0
453 6 -10.6565977721335 8.467296769490396 9.607423952965943 1 1 0
54 3 21.653948664927338 4.614416806573735 3.0980578995301746 -1 -1 0
115 3 25.738144128728056 8.270889457600283 3.0266663193735712 -1 -1 0
450 6 29.355859416315713 6.2036440404423 9.60573833622526 0 1 0
53 2 21.676040356582863 4.54476992041999 -0.013110220411564245 -1 -1 0
49 1 22.060234328293706 2.8099260225377916 1.5802336328399573 -1 -1 0
84 2 22.656837695310404 7.504861731147212 -0.09699544908765259 -1 -1 0
85 3 22.623571178208497 7.604149569652015 3.012353592424074 -1 -1 0
451 4 25.092895851582604 8.902690278787858 7.9534235252826715 0 1 0
448 4 27.517105251918686 6.643214004035571 7.947218968910728 0 1 0
80 1 23.031980621814995 5.788955515604663 1.5187428191630892 -1 -1 0
422 5 23.85575046389644 7.4687345918526855 6.29042133207621 0 1 0
423 6 23.847138444941613 7.462034187415957 9.605943305816362 0 1 0
420 6 26.272510046653117 5.209383743831382 9.602595511604633 0 1 0
419 5 26.278560663335053 5.204512347948209 6.288527869275319 0 1 0
418 4 24.429220655417094 5.639692041091643 7.945275238403091 0 1 0
113 1 24.017017597841168 8.752093454693881 1.4300949598846215 -1 -1 0
415 4 26.84750057564913 3.378161345980897 7.951382233145158 0 1 0
82 3 24.769389335979284 5.3073033241895615 3.100637752387028 -1 -1 0
81 2 24.794949514745433 5.230750249402685 -0.009909625957622735 -1 -1 0
114 2 25.793803976187867 8.195090393912952 -0.084038897238965 -1 -1 0
110 1 26.158539311540164 6.471355416166565 1.5238251553641535 -1 -1 0
111 2 27.931100485245373 5.936196858230724 -0.0055909007236174925 -1 -1 0
112 3 27.900053328528532 5.991314698215478 3.1046964202273135 -1 -1 0
389 5 23.18260793755204 4.205996556600147 6.2882260209328935 0 1 0
390 6 23.17921948175491 4.213432762144572 9.602870212749306 0 1 0
356 5 22.511402053464504 0.957141149484302 6.300520810931794 0 2 0
357 6 22.509518774322995 0.968983405656481 9.61488386856038 0 2 0
387 4 23.761002486225376 2.386731451461196 7.952044587564552 0 1 0
385 5 25.60529755270881 1.9399370629059798 6.298933132225961 0 2 0
386 6 25.60020994242999 1.9555073303616672 9.614286068045624 0 2 0
77 1 25.179545108118546 3.505103742001613 1.588587103033355 -1 -1 0
78 2 26.938542479010202 2.979684326960573 0.04362046339454623 -1 -1 0
107 1 28.314655064514614 4.203631503409369 1.58202826244326 -1 -1 0
421 4 22.000992033179745 7.8897747810083 7.950605794679271 0 1 0
79 3 26.93702429298951 3.0198629209089196 3.15384207708528 -1 -1 0
51 3 23.802464371694718 2.312048569203811 3.156262005903431 -1 -1 0
50 2 23.821728370808675 2.272660273446322 0.0445896161413376 -1 -1 0
74 1 27.333059084748868 1.2359028948202733 1.6184692942540613 -1 -1 0
46 1 24.202539816117966 0.5243312045123292 1.6201570902921798 -1 -1 0
75 2 29.080288005487233 0.7332281368674947 0.05234990697876268 -1 -1 0
416 5 28.689794526033356 2.9264892209666415 6.296284680093639 0 1 0
417 6 28.689573693764064 2.942746238884189 9.610253924396133 0 1 0
412 4 29.265853980880507 1.1046446748359042 7.963606243355254 0 2 0
76 3 29.106773245060108 0.7496821982343408 3.163752320725721 -1 -1 0
449 5 29.3621594710441 6.204318328309422 6.289813426647965 0 1 0
47 2 25.96044708201664 0.013698383019213835 0.07245825316579198 -1 -1 0
48 3 25.95931123951089 0.032296947340781944 3.1832096165669674 -1 -1 0
134 1 33.62104730052814 2.643421854116915 1.555745570440957 -1 -1 0
447 6 31.76810330442845 3.929781521526983 9.608809925091764 0 1 0
446 5 31.77157726869027 3.922033723565023 6.294699904280673 0 1 0
108 2 30.074092187907176 3.69599109418087 0.028153374884016435 -1 -1 0
109 3 30.079932504082755 3.713790658286549 3.1400768254126303 -1 -1 0
104 1 30.472209571379867 1.9441121609396386 1.5902707269883267 -1 -1 0
445 4 29.93000095685129 4.37175367359443 7.949622234931406 0 1 0
442 5 34.178593260051514 1.6379987476961755 6.3053348550543555 0 2 0
443 6 34.185351902875254 1.65629017859478 9.619046210570826 0 2 0
444 4 32.34262200593641 2.093810600295791 7.959857788924034 0 1 0
414 6 31.106078378732466 0.6651995723102946 9.623702354245156 0 2 0
413 5 31.10257117933328 0.645505913633028 6.309632353347257 0 2 0
106 3 32.25705153609 1.4452893981072545 3.1232194834920004 -1 -1 0
105 2 32.21405420309402 1.4517407978309558 0.012313838859438557 -1 -1 0
131 1 35.76671454242326 0.3813577910250444 1.4939749072712682 -1 -1 0
185 1 -20.94347824832195 20.96444821904324 1.3327579872533946 0 -2 0
496 4 -21.70854981650449 21.109323208085254 7.974115892864885 1 1 0
466 4 -24.800414420284806 20.091647581355296 7.978977938114843 1 1 0
468 6 -22.945598248861934 19.676437594255617 9.638493359178145 1 1 0
467 5 -22.952517942098556 19.66165438111146 6.325644572943389 1 1 0
155 1 -24.067987497955123 20.30306529135917 1.3464063315118535 0 -2 0
156 2 -22.34417370258029 19.809625284942037 -0.24618627238806776 0 -2 0
157 3 -22.30373756673672 19.730184664344996 2.862032768521747 0 -2 0
153 2 -20.245375764047537 17.47361999632338 -0.3152758098416113 0 -2 0
154 3 -20.22956437287432 17.43612001000702 2.7933587515377103 0 -2 0
464 5 -20.486639827120893 17.43094175007636 6.334864046728434 1 1 0
465 6 -20.480697766996347 17.43930938240499 9.646861146925104 1 1 0
497 5 -19.85898484778597 20.687464135567804 6.31790534736303 1 1 0
498 6 -19.846659984961953 20.702519919353712 9.630837732694918 1 1 0
152 1 -21.97321089566431 17.997958110115487 1.2610111316285135 0 -2 0
463 4 -22.33955019149829 17.849081608066555 7.989665371664296 1 1 0
149 1 -19.886584901589526 15.681075810017692 1.2235283215033372 0 -2 0
493 4 -19.245745832598274 18.877325054645027 7.982925325912423 1 1 0
527 5 10.742526155435824 0.18911484152428926 6.306731862100452 1 2 0
528 6 10.748904298655017 0.1931165763533022 9.619302091531042 1 2 0
187 3 -19.205058819738504 20.369120980138128 2.867821487478751 0 -2 0
186 2 -19.202492790048833 20.476638086523337 -0.23891748730113166 0 -2 0
217 3 -16.103288683935872 21.02025913305674 2.923998028929495 0 -2 0
182 1 -18.858303673878943 18.647764645646152 1.257346836977632 0 -2 0
295 4 -13.043021698409545 20.92091691527536 7.958919166159373 0 1 0
173 1 -12.56988712428281 11.713086908033358 1.369166560710571 0 -2 0
523 4 -16.14398715595086 19.902971056663482 7.9672874439010535 1 1 0
177 2 -12.886982735106228 13.469549421578595 -0.21890187562148314 0 -2 0
178 3 -12.977378352283859 13.49510843578477 2.8889800453836108 0 -2 0
525 6 -14.285969552703156 19.49437430069987 9.621914985167152 1 1 0
524 5 -14.29008291986502 19.482624460551104 6.302413409950108 1 1 0
495 6 -17.381550535035082 18.470465586750855 9.635372621179112 1 1 0
494 5 -17.39476289803791 18.461713682214878 6.324362133295299 1 1 0
241 1 -12.606577699891659 19.977386189330687 1.4165797149405916 0 -2 0
462 6 -18.007278246179258 15.205056419374046 9.645383075696271 1 1 0
461 5 -18.013541511266922 15.20689806284128 6.334271528501184 1 1 0
490 4 -16.774939740104255 16.648159716784118 7.984403713771224 1 1 0
458 5 -15.544288180095368 12.979054715864992 6.322950344164712 1 1 0
491 5 -14.92126678202284 16.23290932926558 6.325513769048917 1 1 0
492 6 -14.914270814072381 16.234422660609567 9.636878900408524 1 1 0
213 2 -13.958362957062105 18.796258111533362 -0.19174821065800263 0 -2 0
487 4 -14.3081134706481 14.4134515935793 7.979872132458999 1 1 0
520 4 -13.67952471463104 17.67348649218836 7.972305636066064 1 1 0
210 2 -11.853399715773381 16.46611009625605 -0.18464823647581266 0 -2 0
212 1 -15.755928201139378 19.29681777076714 1.3152854927242679 0 -2 0
209 1 -13.645846428614881 16.977799944031375 1.3208035880779803 0 -2 0
211 3 -11.953509554337826 16.43560932430963 2.924987264434373 0 -2 0
184 3 -17.147964281249436 18.06902809265922 2.8172671004412217 0 -2 0
183 2 -17.10360953460015 18.129605057365552 -0.2922432492253266 0 -2 0
179 1 -16.768173931580474 16.327340014626365 1.240552006186207 0 -2 0
180 2 -14.992501755873048 15.79452535886144 -0.281150711673523 0 -2 0
181 3 -15.06650698042586 15.77947679098314 2.8293645276965207 0 -2 0
489 6 -12.452931842332351 13.987224695879933 9.632853373306903 1 1 0
488 5 -12.454503259569709 13.999876196077443 6.320800151623568 1 1 0
176 1 -14.67345443030441 14.014185918794528 1.2838648364252683 0 -2 0
484 4 -11.851165508013866 12.170079495452159 7.969513918145365 1 1 0
521 5 -11.823444999680733 17.254441111672328 6.318395807828889 1 1 0
522 6 -11.82514378115028 17.25510575076851 9.630840736368144 1 1 0
150 2 -18.14060932667382 15.127916042871272 -0.32717627728717674 0 -2 0
151 3 -18.159146513113026 15.143800928745659 2.783360980965391 0 -2 0
206 1 -11.547075845634646 14.678671040348517 1.3698146560481061 0 -2 0
459 6 -15.542282154690085 12.965226151257927 9.635068561830748 1 1 0
297 6 -11.189291783004112 20.506607959094524 9.618192377993513 0 1 0
148 3 -16.08293241139697 12.851827530843936 2.832713603361979 0 -2 0
147 2 -16.033957883298314 12.792149998820273 -0.27563894505519587 0 -2 0
517 4 -11.218152116098949 15.433859186640978 7.976681464860795 1 1 0
296 5 -11.187077088765426 20.503906280885108 6.304926826741082 0 1 0
146 1 19.797822591880443 13.362824811680984 1.2487136010448683 -1 -2 0
144 2 23.671208236315227 10.478712843181109 -0.18393723970484513 -1 -2 0
145 3 23.607710554646946 10.559220901058294 2.9252275490670248 -1 -2 0
229 1 -4.161868203993563 10.819140323870434 1.5898470353495666 0 -2 0
326 5 -8.08474957742249 21.49936929398837 6.302790629021715 0 1 0
327 6 -8.085689982327429 21.507144962310033 9.617511150646306 0 1 0
243 3 -10.909622793557356 19.402456065254757 3.0031471857121868 0 -2 0
242 2 -10.836929993755222 19.459211065615733 -0.10503550440487758 0 -2 0
175 3 -10.867369686452134 11.212452764935895 2.978062283536777 0 -2 0
174 2 -10.778346413763 11.169742143192305 -0.13005123669768945 0 -2 0
238 1 -10.523080647436961 17.654852115653473 1.4280827954883604 0 -2 0
207 2 -9.748623338228251 14.156778890759066 -0.12623582538704925 0 -2 0
208 3 -9.853395752509336 14.154154378889764 2.98225445450794 0 -2 0
269 1 -9.513033293756852 20.647772847139347 1.505055855226003 0 -2 0
203 1 -9.436078454042287 12.387276599124027 1.4472248031843222 0 -2 0
233 2 -4.50622350642668 12.585564145387083 0.024629017889657955 0 -2 0
234 3 -4.578426887782311 12.581103951972333 3.1357155230131983 0 -2 0
232 1 -6.298832418296064 13.081439826634101 1.5365979174996158 0 -2 0
204 2 -7.638921021107891 11.871662334983021 -0.052478955899069035 0 -2 0
205 3 -7.729135877414223 11.883259211271653 3.0560520314643678 0 -2 0
352 4 -4.396645926834922 20.669995000721443 7.969850235992764 0 1 0
322 4 -7.488938754506074 19.683974755255633 7.970088780292738 0 1 0
239 2 -8.728792696363588 17.14763563548302 -0.07516193948596016 0 -2 0
240 3 -8.824057108897184 17.11243917689733 3.032216668291971 0 -2 0
236 2 -6.621001069603261 14.857873543127873 -0.02532175285927593 0 -2 0
237 3 -6.7138029839961995 14.841698137781556 3.0832381143619094 0 -2 0
292 4 -10.583649840868906 18.686925941275934 7.969711544813729 0 1 0
323 5 -5.641558437934987 19.242785740717174 6.3189049029730935 0 1 0
324 6 -5.644068489529438 19.250863886196697 9.631907104981064 0 1 0
235 1 -8.418384954323045 15.358951442838958 1.4761779075289643 0 -2 0
294 6 -8.734612849990487 18.259187675491102 9.630214091767218 0 1 0
271 3 -7.804442711590922 20.10479048909688 3.0984025187573594 0 -2 0
270 2 -7.735629606956488 20.136912020395435 -0.011280154743477114 0 -2 0
266 1 -7.405129450701504 18.34695381034328 1.5337110113496566 0 -2 0
267 2 -5.619390198288373 17.848053286169563 0.020483452516392765 0 -2 0
18 2 -4.641138675420501 20.832332993847086 0.054298337435971906 -1 -2 0
19 3 -4.678473077014137 20.830578944352926 3.164412994269179 -1 -2 0
14 1 -4.28565381270469 19.060021563931464 1.6103375628995689 -1 -2 0
268 3 -5.69133261054772 17.826412538369325 3.1295158023728753 0 -2 0
263 1 -5.291294981227462 16.065913819567665 1.5727589054185782 0 -2 0
265 3 -3.562946352226195 15.56437458090509 3.1611253729491886 0 -2 0
485 5 -9.997883557581734 11.751293292426547 6.310140959160824 1 1 0
486 6 -10.004660722004553 11.7321150336179 9.622235332379848 1 1 0
519 6 -9.370762602391332 14.99819576980523 9.633255135382552 1 1 0
518 5 -9.36602948153856 15.010883286202885 6.32032361952212 1 1 0
514 4 -8.76853283460928 13.179434877178787 7.971529533912792 1 1 0
293 5 -8.732461518516224 18.258319891894775 6.316922620449522 0 1 0
516 6 -6.925017676643633 12.730715257099824 9.628338118185328 1 1 0
289 4 -8.130493321086746 16.437835233583797 7.978095041954777 1 1 0
515 5 -6.918325274891261 12.749421865432977 6.314206503131967 1 1 0
291 6 -6.287721827090689 15.99495232420151 9.636996134917517 0 1 0
290 5 -6.280426283183419 16.002487080560087 6.323491643142161 0 1 0
540 4 -5.686577986401893 14.174294274089075 7.976849266382089 1 1 0
319 4 -5.044707300058623 17.42574893348027 7.981854853700255 0 1 0
288 6 -3.84721553668163 13.71558663860761 9.634790997757712 0 1 0
287 5 -3.8388261854960124 13.731445792509284 6.321299643903915 0 1 0
264 2 -3.508096698125355 15.573842718960439 0.051417079855360225 0 -2 0
539 4 -3.2528803569291145 11.89762612385129 7.971447242348137 1 1 0
321 6 -3.2040450134761285 16.97439314728199 9.642823931907643 0 1 0
320 5 -3.200775212031905 16.974440048229038 6.327474338521721 0 1 0
260 1 -3.164874589466101 13.79931632103703 1.609853086887312 0 -2 0
258 2 0.7344667620362947 11.048414615115547 0.08568911309983006 0 -2 0
259 3 0.7302603856813332 11.04079265241475 3.196667862620613 0 -2 0
382 4 26.185358177734297 0.12333623213558535 7.9674143201161405 0 2 0
384 6 0.5295016644920594 21.209293884327906 9.62900302728051 0 1 0
15 2 -2.516591459093055 18.56184015262926 0.0743695825910916 -1 -2 0
16 3 -2.541164802971937 18.56028000702145 3.1838974981410324 -1 -2 0
261 2 -1.3892803372215297 13.307759749194627 0.07650427714268565 0 -2 0
262 3 -1.4213911615303714 13.306078568218282 3.1869035241324832 0 -2 0
11 1 -2.160435557876414 16.790368751217297 1.6289692850645208 -1 -2 0
257 1 -1.0266514263788624 11.539229607279276 1.635210937255511 0 -2 0
280 2 3.8370667564285386 11.7606925485537 0.06438070316585336 0 -2 0
281 3 3.8796384020071857 11.773806696626034 3.1763400150298886 0 -2 0
383 5 0.5284018489582872 21.18886415404457 6.314863645929731 0 1 0
279 1 2.1028105406510336 12.266395309520604 1.6388205617190421 0 -2 0
354 6 -2.5546890262817388 20.232549299122045 9.631715358621186 0 1 0
353 5 -2.5530634004428454 20.216041762304165 6.316520278507227 0 1 0
43 1 -1.1570324695304857 19.782243525104665 1.6345994372242878 -1 -2 0
282 1 -0.03177829677232078 14.529114006123198 1.6402898781607531 0 -2 0
10 3 1.7366683371928358 14.045254794843725 3.1886570463688026 -1 -2 0
9 2 1.7163257084538766 14.030889885800798 0.08049529445998593 -1 -2 0
37 1 3.1005338034573495 15.25869554004394 1.6130758627559225 -1 -2 0
379 4 1.1157654201359806 19.374089945665784 7.982423340763991 0 1 0
380 5 2.955434430266352 18.910668524581045 6.32657667102134 0 1 0
381 6 2.9586079111428174 18.927407557664804 9.64166942330445 0 1 0
349 4 -1.961954936359155 18.40009854393113 7.984014473521378 0 1 0
12 2 -0.4010763434075828 16.297296049588645 0.08143118385765251 -1 -2 0
13 3 -0.4030318098193586 16.3029482128154 3.1919501218781514 -1 -2 0
45 3 0.6160657017969935 19.29734689431983 3.183451356123953 -1 -2 0
44 2 0.5919809395305939 19.28332460861415 0.07304105566764629 -1 -2 0
40 1 0.9747224950748316 17.519752491777517 1.6305731755170405 -1 -2 0
71 1 1.982257238162154 20.50361146276217 1.6109451676658335 -1 -2 0
73 3 3.772386993930088 20.016121601836296 3.139115152798684 -1 -2 0
72 2 3.713929772851748 20.006965060240592 0.02735898380683362 -1 -2 0