LAMMPS data file via write_data, version 27 Jun 2024, timestep = 60000, units = metal

540 atoms
6 atom types

0 37.59365801343109 xlo xhi
0 21.52779524830364 ylo yhi
-0.3489970720704427 9.836517516370739 zlo zhi
-27.49615054720427 0 0 xy xz yz

Masses

1 95.95
2 32.06
3 32.06
4 95.95
5 78.971
6 78.971

Atoms # atomic

175 3 -10.335982478790287 11.19706945774565 2.887677562965913 0 -2 0
170 1 -10.002373153687744 9.50565501130936 1.2787984103725083 0 -2 0
449 5 29.257706127687232 6.2402390808477515 6.357168592716531 0 1 0
450 6 29.18810669035725 6.199485158076623 9.64096338472949 0 1 0
479 5 -5.390461157847951 7.1127176398305725 6.216499180990241 1 1 0
480 6 -5.266017731250541 7.1689176732575675 9.61378761712485 1 1 0
478 4 -7.112186494648129 7.620651772934646 7.996567467612831 1 1 0
202 3 -5.042951769942647 9.693557573805554 2.815902326097103 0 -2 0
201 2 -5.076555751829282 9.896670586379555 -0.26767908035339216 0 -2 0
452 5 26.648452442721545 8.335477593739252 6.374643625244769 0 1 0
453 6 26.65071118842202 8.350577847751136 9.778538249184791 0 1 0
169 3 -3.0953157303706993 7.374953370472793 2.83413284906709 0 -1 0
168 2 -2.8944075535667304 7.469330251972124 -0.3058116999130558 0 -1 0
475 4 -4.750848743682136 5.289880080797754 7.973181055604432 1 1 0
200 1 -6.904053048809216 10.074668900696409 1.2724416512834085 0 -2 0
167 1 -4.739105637500922 7.951088061650918 1.2230998804194373 0 -1 0
164 1 -2.6113411151322548 5.600535696903087 1.3786359076512378 0 -1 0
481 4 -9.829737074632954 9.844130088798906 8.09240585977711 1 1 0
483 6 -7.786506145010533 9.472429231455525 9.691368725699324 1 1 0
482 5 -7.891013577873102 9.423652568364448 6.403960828986956 1 1 0
171 2 -8.274691165461517 8.933526381215477 -0.2681553150220471 0 -2 0
172 3 -8.291928311664073 8.985713040651614 2.792347634278593 0 -2 0
141 2 -6.160052536195702 6.743269238320349 -0.31882358794646887 0 -1 0
142 3 -6.081449111376226 6.903415702977022 2.846300798205245 0 -1 0
513 6 -4.658929806200137 10.374089424123222 9.490797173301718 1 1 0
508 4 -4.144269663836188 8.594761407319792 7.775664633455251 1 1 0
229 1 -3.6469328301050377 10.866950143917665 1.3601538028395068 0 -2 0
140 1 -7.868779010258594 7.253688086825675 1.2916171407014092 0 -1 0
139 3 -4.056697698582883 4.484808557739296 3.0098379494505805 0 -1 0
138 2 -3.967845868128672 4.399490391674541 -0.12591219149616734 0 -1 0
512 5 -4.823978859679169 10.467441737094173 6.195387943453684 1 1 0
230 2 -1.8725390047101969 10.572586863725004 -0.2599768842077903 0 -2 0
231 3 -2.0706901405257394 10.274901344702048 2.9787756463131676 0 -2 0
197 1 -1.6443108944292568 8.674561152388758 1.2363114949794904 0 -1 0
165 2 -0.9097734756729939 5.108623730553943 -0.14778415929671337 0 -1 0
166 3 -0.8847212606324202 5.207921988437911 2.9617725029306188 0 -1 0
256 1 1.567311995981437 9.387121475138251 1.6020149395543537 0 -2 0
227 2 3.3534980915802852 9.11261145708737 -0.02656790591404668 0 -1 0
228 3 3.3074787288217493 8.897138273979314 3.142932922769249 0 -1 0
225 2 5.454125894059924 6.75176511563388 0.09077877852086826 0 -1 0
226 3 5.359231613268796 6.665735010906406 3.2246261950989745 0 -1 0
276 1 4.692107781985303 10.151250631104272 1.5890651058883536 0 -2 0
476 5 -3.0110482139826322 4.874428174859704 6.3524897184619675 1 1 0
477 6 -2.8873125487739397 5.0029906101188155 9.650066577103644 1 1 0
505 4 -1.6669644841186713 6.30146763244055 7.8314072938681285 1 1 0
472 4 -2.3270743383174133 3.0581098360293484 8.038464475692729 1 1 0
473 5 -0.5140531206880599 2.626931735661696 6.27555074243788 1 1 0
474 6 -0.5007621761743677 2.637917424776623 9.600322027946136 1 1 0
506 5 0.1068915131084118 5.8050632078611075 6.224097293426606 1 1 0
507 6 0.08131099701433503 5.86337538523828 9.620599167897765 1 1 0
502 4 0.6807203003839514 4.0131507728365925 7.977429017293493 1 1 0
469 4 0.11602870110261594 0.7319355553739507 7.939379832954387 1 2 0
224 1 3.6943533962144595 7.198342651245027 1.5570220857172339 0 -1 0
535 4 1.331417165379019 7.31912075642824 7.848687094888858 1 1 0
504 6 2.5555907964542444 3.591746611800347 9.569073262477946 1 1 0
503 5 2.4867565261495828 3.5568599803926566 6.238433395782571 1 1 0
470 5 1.98118789514209 0.22262173318819095 6.2419027741649105 1 2 0
471 6 1.927696643295624 0.30370397143231137 9.581880819556938 1 2 0
198 2 0.20381093444716766 8.20850261311256 -0.23758844899913203 0 -1 0
199 3 0.0731704296213564 8.209734748196775 2.992099903636036 0 -1 0
196 3 2.238149824015651 5.9262440305138435 2.956973079141043 0 -1 0
195 2 2.3290414765801173 6.050982119829983 -0.06537421999741465 0 -1 0
194 1 0.4576327579552633 6.371487698129547 1.4312808417531122 0 -1 0
192 2 4.426591036684455 3.6603159819034383 -0.09632563988424692 0 -1 0
193 3 4.391112784625269 3.558793235285766 3.0340579787523625 0 -1 0
509 5 -2.3014512990885714 8.112531849127087 6.137551127173924 1 1 0
510 6 -2.354330529971352 8.210939391097995 9.545696602253475 1 1 0
191 1 2.591181536458462 4.105743875729453 1.5227967114797116 0 -1 0
536 5 3.2582649339080545 6.963834985135902 6.230089905897309 1 1 0
537 6 3.2299254062845413 6.866845081900087 9.56127657593541 1 1 0
499 4 3.043329513083159 1.7374237388928324 7.881505722664749 1 2 0
161 1 -0.5350963777301017 3.3810344852491507 1.44230774220903 0 -1 0
162 2 1.259589716289444 2.898982872266716 -0.1375079240561786 0 -1 0
163 3 1.314997330753864 2.8458132686327677 3.0596246719884754 0 -1 0
188 1 4.79429307403857 1.8788188290461485 1.4905958656372853 0 -1 0
538 4 -1.230234237130715 9.655007101927563 7.8713083018164856 1 1 0
283 5 0.7404001889232111 9.169306739765116 6.227133063050938 0 1 0
284 6 0.6367950854996691 9.130959873048448 9.508541115810791 0 1 0
158 1 1.6707259563140981 1.1013764330536602 1.4784576508204395 0 -1 0
532 4 3.746851548690507 5.027964627155467 7.828857540545249 1 1 0
312 6 3.7401678332920847 10.105065191427013 9.553794462466637 0 1 0
311 5 3.8888131740459517 10.200890010829507 6.240957375684419 0 1 0
258 2 1.1438502544605693 11.181162088264836 0.07803926688659214 0 -2 0
259 3 1.2007881836521874 11.088283823761774 3.196860678730653 0 -2 0
307 4 4.446444044518246 8.39266999507511 7.897743490406013 0 1 0
159 2 3.468895031945002 0.6802173993930677 -0.07299562838287367 0 -1 0
160 3 3.508562233213872 0.5343371293196184 3.0020466688039513 0 -1 0
277 2 6.487609819583903 9.728757885352119 0.052447284112222985 0 -2 0
278 3 6.4470577088343735 9.640220854544683 3.1745122694002 0 -2 0
221 1 5.716334482272727 4.879066614168074 1.5578808627140366 0 -1 0
253 1 6.716846384517814 7.909623587591611 1.6058168082220976 0 -1 0
189 2 6.516085529942739 1.3461099520698825 -0.11747952096263665 0 -1 0
190 3 6.497208875885189 1.259423623341131 3.038048452795987 0 -1 0
223 3 7.462223534333235 4.135724621349923 3.187653572086978 0 -1 0
222 2 7.558881154965563 4.416495208383018 0.04683082721990619 0 -1 0
31 1 7.824606398794909 10.806136612264176 1.651420120322854 -1 -2 0
250 1 8.833662034113159 5.508738721653393 1.67319790253391 0 -1 0
254 2 8.50256645060821 7.270648511184608 0.08401726847592185 0 -1 0
255 3 8.51022772967241 7.294570816925298 3.1371218891024246 0 -1 0
6 1 9.900344466427667 8.532751671999256 1.5575148734626598 -1 -1 0
33 3 9.561147121115889 10.2706847890961 3.1814818637043287 -1 -2 0
32 2 9.490094725169206 10.384677614640863 0.12368460080339355 -1 -2 0
251 2 10.61551250857827 5.037516828587233 0.09799823917398795 0 -1 0
3 1 12.009308068900914 6.220345830054137 1.5602636964665229 -1 -1 0
7 2 11.575782744318278 7.987099206934812 -0.007211342500069342 -1 -1 0
8 3 11.708285991919952 8.06456980348003 3.1009010077301116 -1 -1 0
4 2 13.66518361940229 5.753033958864103 0.03986901595901309 -1 -1 0
5 3 13.685038648423076 5.669699680322747 3.265975829051489 -1 -1 0
58 1 13.045064253672663 9.202909240221784 1.5450345446445528 -1 -2 0
500 5 4.884716147253026 1.2355683325831015 6.173492319340717 1 2 0
501 6 4.84737312816402 1.3336800311038832 9.556969125942837 1 2 0
533 5 5.632902959003558 4.580752265865353 6.296067899566896 1 1 0
534 6 5.542398624011119 4.686493841385961 9.539630971733972 1 1 0
529 4 6.133966562617586 2.7688917278344287 7.888683405283484 1 1 0
304 4 6.897112702082526 6.0013411015211116 7.955950492812282 0 1 0
306 6 8.772431858815981 5.643247623396791 9.60048638837753 0 1 0
305 5 8.785566201781023 5.71393564531366 6.298626853472039 0 1 0
531 6 7.9730919812156325 2.4908148104089967 9.531401151350563 1 1 0
530 5 8.05531660925165 2.4311475441885655 6.291753980117762 1 1 0
526 4 8.585493060886973 0.5786833665455271 7.927139799700623 1 2 0
301 4 9.302659462579797 3.796465854987313 7.893745381460027 0 1 0
334 4 10.00770269786176 7.095398397435899 7.997632830429641 0 1 0
527 5 -17.090545183070773 21.51277413103221 6.21375386988084 1 1 0
528 6 10.491523215874837 0.15083282163955536 9.477034336285403 1 2 0
252 3 10.569177291858654 5.072046885130395 3.1601876664970234 0 -1 0
308 5 6.363888564495293 7.836515619389367 6.24017088924196 0 1 0
309 6 6.3076039780676485 7.847162439007421 9.586780276400265 0 1 0
303 6 11.05218348678983 3.3325794532359296 9.51374403749694 0 1 0
247 1 10.970838770932192 3.254398785135714 1.6847472073532392 0 -1 0
339 6 9.423864481975283 8.88007115472666 9.655480327302989 0 1 0
338 5 9.385129605421143 8.860545372601043 6.248483707960989 0 1 0
302 5 11.198662116646174 3.21536703195717 6.2381817071308525 0 1 0
220 3 9.485029940992904 2.019452943848415 3.186928478709119 0 -1 0
219 2 9.600630341390483 2.1100762761849086 0.10074697309358764 0 -1 0
218 1 7.8835762989100635 2.5384524064475857 1.5795045021926168 0 -1 0
248 2 12.665850647531272 2.729102443303205 0.04072677174332256 0 -1 0
249 3 12.77197867820522 2.6112838820336317 3.1557595378295087 0 -1 0
337 4 7.537357531479649 9.304771503712095 7.976658615734213 0 1 0
298 4 11.773169223901748 1.4919306621410844 7.895938764616362 0 2 0
244 1 13.239087449179289 0.8984938186594026 1.5100282191298806 0 -1 0
367 4 10.630324344800488 10.24709528100297 8.007872057180315 0 1 0
335 5 11.823122287697885 6.567738756074907 6.245538757979817 0 1 0
336 6 11.921673516079847 6.588636819187637 9.53569409906808 0 1 0
60 2 12.612375580020958 10.877766077115073 -0.02344124149384051 -1 -2 0
61 3 12.807655396787103 10.943377214901524 3.1245979467539855 -1 -2 0
331 4 12.356388717176799 4.689333077035477 7.930799705703121 0 1 0
368 5 12.370128093987057 9.866871494643393 6.241507875206584 0 1 0
369 6 12.447691677710043 9.89177996644999 9.617224508448977 0 1 0
275 1 14.062714965280733 3.996435644487351 1.5943986879026173 0 -1 0
26 1 15.015086905635686 6.792623422920961 1.5570207442003374 -1 -1 0
30 3 14.70692061344257 8.657604279089059 2.995593022777894 -1 -1 0
29 2 14.664810604642703 8.59127076156996 -0.04260854249902122 -1 -1 0
2 3 15.862643884995853 3.513183019457936 3.0505100452248417 -1 -1 0
86 1 16.05128818530485 9.960738613548502 1.3842826906489898 -1 -2 0
1 2 15.696319402798327 3.4856061583277294 -0.053019367542549545 -1 -1 0
28 3 16.851303716177508 6.435290851988615 3.025925561383759 -1 -1 0
27 2 16.69734735968031 6.377987648341326 -0.05859403048953637 -1 -1 0
87 2 17.770449994536314 9.335193138695674 -0.19918223000819404 -1 -2 0
88 3 17.934492906204362 9.4341214478666 2.8537070199361163 -1 -2 0
55 1 18.188292283100854 7.594566372891137 1.3311350113508547 -1 -1 0
116 1 19.25866146794165 10.605137337000452 1.2704622604301743 -1 -2 0
52 1 20.284347105172102 5.2961105362826615 1.3933430445861323 -1 -1 0
57 3 19.927169662642147 7.1030634328527915 2.8551348988887377 -1 -1 0
56 2 19.907510822254892 7.008861318568405 -0.2575891168984092 -1 -1 0
117 2 20.948009057124803 10.07710072794466 -0.2758049004255153 -1 -2 0
83 1 21.263189963839235 8.232310147934806 1.2790921581600878 -1 -1 0
118 3 20.978861337571118 9.993522047468705 2.9211604140637424 -1 -2 0
299 5 13.530487347752262 1.078868994061419 6.347604705940998 0 2 0
333 6 14.17392869429016 4.3628701076851435 9.716408418595043 0 1 0
332 5 14.241989587712856 4.307504424125595 6.3385006463941815 0 1 0
328 4 14.79647641108936 2.5097006417352663 8.048118346825083 0 1 0
300 6 13.559552159884836 1.0657303272868233 9.686495336360178 0 2 0
361 4 15.439628317504024 5.859089028416886 8.034203539572678 0 1 0
329 5 16.717661736610385 2.191124840135429 6.361160189850783 0 1 0
330 6 16.56197300909973 2.0390254969364894 9.635132720297158 0 1 0
363 6 17.336740495500297 5.374942454238578 9.706471878936021 0 1 0
362 5 17.28868718005623 5.445863476970648 6.375394188617838 0 1 0
358 4 17.81819656339524 3.588633660107843 8.040633519597582 0 1 0
325 4 17.21056284594122 0.26728278129797567 7.978455389569637 0 2 0
391 4 18.660707418356044 6.775477760563016 8.064004512645356 0 1 0
23 1 17.180979956688883 4.681337409931284 1.4893342377357337 -1 -1 0
365 5 14.934954964518013 7.571476467592307 6.311782906530612 0 1 0
366 6 14.907981562484146 7.508020595492115 9.633061460450449 0 1 0
24 2 18.936167182853744 4.00983465179887 -0.10368758493619529 -1 -1 0
25 3 18.8822930676166 4.1938427624323955 3.0686345399717725 -1 -1 0
364 4 13.115689948443931 7.995320254142014 7.967727984392507 0 1 0
396 6 17.97911267400607 8.586311131334961 9.676318497897764 0 1 0
395 5 17.965123485788794 8.564928902295156 6.38761501200712 0 1 0
272 1 16.238023286546653 1.7046459361589708 1.5718206011350686 0 -1 0
20 1 19.332456802685332 2.3057496742230854 1.5678694402320326 -1 -1 0
21 2 21.096027211488153 1.7640101639869805 0.11723323157531301 -1 -1 0
22 3 21.157144874436792 1.787949760855663 3.1363471312037206 -1 -1 0
394 4 16.213010538590943 8.910157295696235 7.9742057493979885 0 1 0
359 5 19.65099308742752 3.27782397615169 6.370967496867794 0 1 0
360 6 19.7882479260478 3.2221115390217983 9.68041972655718 0 1 0
273 2 17.965968423875783 1.1862736099903353 -0.09142286177610769 0 -1 0
274 3 17.882229697650445 1.1871761060995514 3.061754779003288 0 -1 0
424 4 19.290841471712884 10.071603605678874 8.05769137617643 0 1 0
392 5 20.414063771402624 6.463347544206633 6.428850531768301 0 1 0
355 4 20.31499373766873 1.378942457844605 8.001904694079313 0 2 0
326 5 -8.441960459735977 21.387522978715356 6.311866485869368 0 1 0
327 6 -8.360300666282575 21.428141712559857 9.678135152567664 0 1 0
393 6 20.488267276295804 6.28788247807784 9.699880671909538 0 1 0
54 3 22.029863136418538 4.821443346632544 3.0435783484600445 -1 -1 0
53 2 22.04108880916284 4.6598064261955425 -0.16966305696117862 -1 -1 0
49 1 22.559117559527305 3.0230508774629494 1.5250782878278386 -1 -1 0
84 2 23.034416493210802 7.496713398495737 -0.3389970720704427 -1 -1 0
85 3 23.02266522632855 7.749187951506918 2.8417807580161343 -1 -1 0
451 4 24.810227490957978 8.777797216757783 8.057379270175874 0 1 0
448 4 27.301080024844214 6.543179359273673 8.013164008135195 0 1 0
80 1 23.523424680037046 5.846971034469348 1.3476220896923392 -1 -1 0
422 5 23.497915932231447 7.221115118819716 6.430013610371029 0 1 0
423 6 23.61457180164402 7.2789114343079335 9.771619181821132 0 1 0
420 6 26.15374060707131 5.023751944213237 9.726440301139757 0 1 0
419 5 26.03317133567058 5.076922282327709 6.447864559290782 0 1 0
418 4 24.20377177318796 5.455782781540838 8.041754355858112 0 1 0
113 1 24.4770469688529 8.709389676163184 1.2572965343544253 -1 -1 0
415 4 26.686299015539827 3.2919938920930463 8.00735226499065 0 1 0
82 3 25.160825456087984 5.33033798919119 2.880742753845227 -1 -1 0
81 2 25.111667834512232 5.293500415636348 -0.21455824676634483 -1 -1 0
114 2 26.253110071325075 8.277440258069884 -0.3038558219372857 -1 -1 0
115 3 26.24589383147923 8.279075831709529 2.7992070953608668 -1 -1 0
110 1 26.60200300264667 6.526714079108095 1.3226999713107777 -1 -1 0
111 2 28.387589488818907 6.048269936865834 -0.20021950676223146 -1 -1 0
112 3 28.32776400019209 6.030067516913585 2.9600192450845992 -1 -1 0
388 4 21.058283866230724 4.635353562207759 8.010518352738154 0 1 0
389 5 22.91675445775013 4.17522510122797 6.323596710210894 0 1 0
390 6 22.87013670940306 4.005527475097123 9.617133738631141 0 1 0
356 5 22.11137367364123 1.0304231996347477 6.315148372136163 0 2 0
357 6 22.226890564461662 0.8990466914211395 9.597120622709852 0 2 0
387 4 23.546630722631292 2.2864013133566994 7.962606019812754 0 1 0
385 5 25.41942360538978 1.9296062027253582 6.309873854853449 0 2 0
386 6 25.426843642371423 1.879703110032255 9.650541187963707 0 2 0
382 4 26.009912788104803 0.023775856299801904 7.971204094601365 0 2 0
77 1 25.613104836537165 3.5134394035132073 1.4300951887544473 -1 -1 0
78 2 27.31093200384688 2.9410046869767394 -0.10548049362641329 -1 -1 0
107 1 28.711107176229316 4.250902680566245 1.4113813913429771 -1 -1 0
421 4 21.72381546237203 7.779576134702623 8.095030939232469 0 1 0
79 3 27.306488117174695 3.090085077868682 3.0219469983416416 -1 -1 0
425 5 21.124074136470743 9.474057060858515 6.3631874232253995 0 1 0
426 6 21.1913014014124 9.650853066519362 9.73573189683643 0 1 0
51 3 24.283238670069395 2.363295505059872 3.062785660178445 -1 -1 0
50 2 24.183383497457278 2.289188235032434 -0.08895677805906453 -1 -1 0
74 1 27.657919541556748 1.2459972681127534 1.5364511488099204 -1 -1 0
46 1 24.506829491572688 0.629731591664652 1.4807306385957781 -1 -1 0
76 3 29.52110508037806 0.8811976881981572 3.1053831588199485 -1 -1 0
75 2 29.442944609652056 0.8241132079764358 -0.056154247631862504 -1 -1 0
416 5 28.498318259473272 2.9489956503993606 6.323905816558205 0 1 0
417 6 28.468790644707486 2.957197736475385 9.610328605946856 0 1 0
145 3 24.068323211507938 10.542095778189204 2.969484582008997 -1 -2 0
144 2 24.173842799108346 10.447207528119701 -0.2160255932441082 -1 -2 0
412 4 29.049020749030454 1.056954162215259 7.969099637865078 0 2 0
447 6 31.61586732918511 3.904654895747979 9.589814825670052 0 1 0
446 5 31.675020351387275 3.8443349481834623 6.267815621878223 0 1 0
108 2 30.42380393526534 3.857419296856126 -0.1526669402659123 -1 -1 0
109 3 30.43725415713433 3.8124754918889865 2.933587321888656 -1 -1 0
104 1 30.808247179708538 2.1206241812780497 1.4915601806533245 -1 -1 0
445 4 29.78746065562272 4.384508614108759 7.8960399138228645 0 1 0
442 5 34.08067276296866 1.5682193710873353 6.347547077590936 0 2 0
443 6 33.94559374433136 1.6320313517401215 9.706035827812284 0 2 0
444 4 32.21629944645815 1.9986292781127704 7.923447754332397 0 1 0
137 1 -5.707850445618019 5.019804407839181 1.3885297613320533 0 -1 0
414 6 30.925935952056204 0.4673028277309583 9.59154011527625 0 2 0
413 5 30.94745378670154 0.6237912429109151 6.272274908699299 0 2 0
134 1 33.95961494916196 2.7365846166534955 1.447008181126232 -1 -1 0
106 3 32.4644473577754 1.5674157642182933 3.0330746713438894 -1 -1 0
105 2 32.43663048994973 1.4693936499288176 -0.1303172520761561 -1 -1 0
135 2 -1.9498135625233235 2.0769999244577977 -0.08452001624323152 0 -1 0
136 3 -1.9043839836014724 2.2175179697271936 2.9625533578578738 0 -1 0
439 4 7.1278003209457355 21.235806662820277 8.008300174735629 0 1 0
496 4 -22.056918448982692 21.044513194955428 7.82202927789643 1 1 0
466 4 -24.98522765752241 20.039850008877604 7.970581648160538 1 1 0
468 6 -23.086101190090396 19.546100136277456 9.500942629193801 1 1 0
467 5 -23.296101732402672 19.55378945930609 6.23723097145535 1 1 0
463 4 14.864422999214408 17.63449208199607 7.962644937438861 0 1 0
186 2 -18.79585122258726 20.635962738104396 -0.14206028786643266 0 -2 0
187 3 -18.754960235968998 20.542879834099487 3.0641353601941677 0 -2 0
185 1 -20.55817487711045 21.063982935239324 1.4741064971809688 0 -2 0
155 1 -23.608198934201116 20.315140852172952 1.3926545365717682 0 -2 0
156 2 -21.925194826255154 19.93623974548287 -0.1289536727588984 0 -2 0
157 3 -21.834900325470016 19.756653080956674 3.0094286029717328 0 -2 0
153 2 -19.693123161144904 17.58279974316799 -0.22007831290947674 0 -2 0
154 3 -19.842320837302037 17.521143962145267 2.950450237519219 0 -2 0
464 5 -20.780242968220115 17.364026782478913 6.342343103583957 1 1 0
465 6 -20.789557316001247 17.32843249937189 9.55423185606102 1 1 0
497 5 -20.243137683330826 20.641585749875947 6.180831516733039 1 1 0
498 6 -20.184866380523122 20.668149664326357 9.52664213432147 1 1 0
460 4 17.35823901836165 15.420706888080504 7.947046405012124 0 1 0
182 1 -18.32687228318436 18.798961181728426 1.3690049848144765 0 -2 0
455 5 -13.339919734632735 10.519565548652459 6.361394586051038 1 1 0
456 6 -13.39397672298422 10.69701613983633 9.683563761058819 1 1 0
215 1 10.060656335673968 0.32256482909584216 1.5186442977085906 0 -1 0
245 2 14.929762604269406 0.36766496129892706 -0.044638726555360914 0 -1 0
214 3 14.992524921932478 0.49457027194381487 3.135714956621685 0 -1 0
246 3 14.925696056555322 0.4071053600354929 3.0920821717002607 0 -1 0
174 2 -10.307709087163419 11.302904204228772 -0.19150579591732897 0 -2 0
295 4 -13.474419622179777 20.694525710845504 7.996982492465469 0 1 0
173 1 -12.018828370442453 11.69907184104768 1.387320042210607 0 -2 0
523 4 -16.57408520743038 19.63885392122405 7.8995783079351884 1 1 0
177 2 -12.360149636786142 13.509543835800754 -0.1368674441596561 0 -2 0
178 3 -12.386637419331658 13.50408444327074 2.993659262735738 0 -2 0
525 6 -14.782421707900543 19.367267668223594 9.634885353606316 1 1 0
493 4 -19.650063369206904 18.81573244437666 7.92391432797643 1 1 0
524 5 -14.576293771738158 19.16303165127895 6.3047924627355165 1 1 0
206 1 -11.039565971149191 14.754285827112119 1.4524426549170408 0 -2 0
495 6 -17.87367715027734 18.357705224068685 9.634751145721962 1 1 0
494 5 -17.849495542000348 18.30068110568199 6.251935225634043 1 1 0
216 2 -15.66829816113707 21.284967439207133 0.0065754267461031095 0 -2 0
217 3 -15.643069340108529 21.23635120300293 3.0626288325690503 0 -2 0
241 1 -12.111102050947256 20.18925029536082 1.6209418401008067 0 -2 0
457 4 19.822255694034343 13.29108835072029 8.02331773106953 0 1 0
462 6 -18.52181886849947 15.125898782603514 9.637291150583051 1 1 0
461 5 -18.347776727417397 14.993881187420056 6.33726350886058 1 1 0
490 4 -17.196616328241234 16.546654506949885 7.995720482439347 1 1 0
458 5 -15.82393823205483 12.802922338867047 6.364768053943536 1 1 0
459 6 -15.888090392005385 12.872208374080575 9.617634793018285 1 1 0
491 5 -15.366915916609472 16.13974906683486 6.381561970731694 1 1 0
492 6 -15.300102002455395 15.988790944561726 9.60767416995489 1 1 0
213 2 -13.391923270619207 19.02946654179632 0.0032239004999257527 0 -2 0
487 4 -14.73010602899563 14.325288594981327 7.96760975288191 1 1 0
520 4 -14.14292854643968 17.459112632186525 8.003891476629331 1 1 0
210 2 -11.267132851664075 16.63278812133692 -0.07667263879706775 0 -2 0
212 1 -15.206236296662938 19.405023383339024 1.4841198341573085 0 -2 0
209 1 -13.113073040493353 17.114685147079154 1.4753230020758255 0 -2 0
211 3 -11.373207726561652 16.526696796768206 3.0746260730690493 0 -2 0
184 3 -16.607823812078266 18.19016011510246 2.9483992629908617 0 -2 0
183 2 -16.49951210178054 18.26748106329984 -0.2351733032847525 0 -2 0
179 1 -16.178611555411567 16.525509333248838 1.3424506371672436 0 -2 0
180 2 -14.380201588240876 15.92993835899546 -0.24152881555485203 0 -2 0
181 3 -14.444614697607749 15.743954630451563 2.9839832003921978 0 -2 0
489 6 -12.936776464624064 13.88824042358202 9.591712174902094 1 1 0
488 5 -12.8605142067562 13.934701392476695 6.313734745796635 1 1 0
176 1 -14.084956863234524 14.112784918249632 1.3741537588890222 0 -2 0
484 4 -12.255477797532267 12.006422118479191 7.980236140477629 1 1 0
521 5 -12.29383889252668 17.0086642270011 6.437577260538705 1 1 0
522 6 -12.24815826493776 17.059698022524227 9.641083819330147 1 1 0
150 2 -17.555356162724976 15.394620817898444 -0.2565836512992807 0 -2 0
151 3 -17.500329463327777 15.270394163878468 2.88276549621081 0 -2 0
242 2 -10.446537780278062 19.668010045597164 0.04574905593130695 0 -2 0
243 3 -10.419255476282103 19.656988508330866 3.0737987375348768 0 -2 0
238 1 -10.039083704597752 17.796493836872724 1.5492140393872627 0 -2 0
511 4 -6.614246861822945 10.800391851364262 7.911225825729639 1 1 0
17 1 -6.048133021884658 21.497088072963663 1.5396084328544635 -1 -2 0
207 2 -9.416570735891261 14.222917703341835 -0.08632262483057833 0 -2 0
208 3 -9.369309383613013 14.200073727070286 2.9794113837270246 0 -2 0
269 1 -9.115684153344754 20.872603527237487 1.5101123307795599 0 -2 0
203 1 -9.057518486101527 12.438594448469422 1.413780528909973 0 -2 0
233 2 -3.9257702460470165 12.784995082288825 -0.20337837949070775 0 -2 0
234 3 -4.0959975200269225 12.573373247583016 2.924666995657968 0 -2 0
232 1 -5.829988183768772 13.128748039209093 1.3179464677684867 0 -2 0
204 2 -7.337342208105386 11.854336705245908 -0.17000393571538822 0 -2 0
205 3 -7.280262993799335 11.924929979732674 2.8406304951147674 0 -2 0
297 6 -11.67536507911767 20.26248644076663 9.663964894193773 0 1 0
296 5 -11.457994118235177 20.285680436666517 6.400348936034746 0 1 0
352 4 -4.731767098041859 20.638314714040877 7.900256211836058 0 1 0
322 4 -7.8148017806744985 19.570361340906505 8.003716372391514 0 1 0
239 2 -8.313857683898622 17.22041035000128 -0.08758200115764897 0 -2 0
240 3 -8.405045583816236 17.257395114315873 3.0667558820223446 0 -2 0
236 2 -6.307441715167728 14.937292824388592 -0.2592162859185532 0 -2 0
237 3 -6.289318686300329 14.771501786810546 2.928907959955421 0 -2 0
260 1 -2.6962823576036943 13.924276758574349 1.5104068451665087 0 -2 0
292 4 -11.006407596546598 18.46860026019054 8.013747644115789 0 1 0
323 5 -6.011134277297519 19.183579042924954 6.2770765024429584 0 1 0
324 6 -5.885263687964036 19.172965048217534 9.689295032557826 0 1 0
235 1 -8.042351148558792 15.42119931004812 1.4389232353685129 0 -2 0
294 6 -9.029608615165696 18.131065800916957 9.639753109688977 0 1 0
271 3 -7.39026270213491 20.29516621937081 3.126452673841453 0 -2 0
270 2 -7.400446676626662 20.323582128664025 -0.013377687997911862 0 -2 0
266 1 -6.966157579512635 18.5034548790249 1.4662072451564931 0 -2 0
267 2 -5.262992165356264 17.981953707316123 -0.06788329763167421 0 -2 0
18 2 -4.292959831042108 20.91930655838979 -0.031629635669944194 -1 -2 0
19 3 -4.366804869450978 21.004869343978495 3.1039167179314116 -1 -2 0
14 1 -3.891886811991607 19.265153830973876 1.5453519490993017 -1 -2 0
268 3 -5.3569298874712015 17.924613250064553 3.0457903668192174 0 -2 0
263 1 -4.968406767885612 16.113386268634216 1.4100974474922108 0 -2 0
264 2 -3.0592955856707196 15.658880387253092 -0.07815874726060472 0 -2 0
265 3 -3.290045132917862 15.58838719586768 3.0854913036911027 0 -2 0
517 4 -11.529441120009052 15.300626471789906 7.98276039969101 1 1 0
485 5 -10.333498359686201 11.591707920625819 6.390376998160683 1 1 0
486 6 -10.383061500687003 11.618854274008992 9.67023034199621 1 1 0
519 6 -9.679380470774952 14.89158604269238 9.656210686548668 1 1 0
518 5 -9.712185341201199 14.957906782774849 6.292785085694744 1 1 0
514 4 -9.131336660286557 13.047971957911619 7.987338409569156 1 1 0
293 5 -9.194972651160885 18.195536624817 6.365945848235022 0 1 0
516 6 -7.2456653018213535 12.651523486735728 9.58090870059794 1 1 0
289 4 -8.465121723331322 16.28498025077841 7.996661707067409 1 1 0
515 5 -7.262691850187165 12.73915815866041 6.228338073947858 1 1 0
291 6 -6.566914600888291 15.957314338280273 9.660782983796933 0 1 0
290 5 -6.645942659189102 15.997349836142563 6.333144749075431 0 1 0
540 4 -6.057982720934596 14.183754224645059 7.9234220640387925 1 1 0
319 4 -5.384409548949833 17.373268701732147 7.966989028351133 0 1 0
288 6 -4.212875442030188 13.680486578225636 9.624862929893288 0 1 0
287 5 -4.164411422517588 13.745850821884279 6.2667064805747295 0 1 0
384 6 0.226469038164318 21.067723258032157 9.57692421655499 0 1 0
15 2 -2.15822367815226 18.67366690369369 -0.020296379834949516 -1 -2 0
16 3 -2.3467169300791557 18.78386378493635 3.1195178637574767 -1 -2 0
310 4 1.9165468108870698 10.72338238969954 7.917177577853601 0 1 0
47 2 26.296368097707692 0.17838907792472877 -0.09975056910484002 -1 -1 0
48 3 26.244960127736814 0.06365073979219561 2.993679955792997 -1 -1 0
261 2 -0.8908294306840259 13.361478265333353 0.17511934621781225 0 -2 0
262 3 -0.927655209807788 13.306000258525891 3.219688487234681 0 -2 0
11 1 -1.7956766443240064 16.917134419783547 1.597545117977341 -1 -2 0
257 1 -0.5763992032462827 11.60466745851916 1.6176953179445266 0 -2 0
280 2 4.316442428991319 12.012790457501298 0.13407805605155623 0 -2 0
281 3 4.319397429732274 11.892614001531292 3.2031590334908353 0 -2 0
383 5 0.38236336809481236 21.016699978925224 6.300980055449748 0 1 0
279 1 2.6209730659338115 12.39646144085201 1.7338859227223467 0 -2 0
34 1 5.74786389877125 13.085904116445391 1.7373724855443649 -1 -2 0
354 6 -2.9159248936203883 20.209353697806765 9.586708455755808 0 1 0
353 5 -2.908075212668321 20.20684728544803 6.2317448880474915 0 1 0
43 1 -0.7767764831611252 19.861794429171983 1.494759172888065 -1 -2 0
282 1 0.3165895541289889 14.606842323751136 1.7239349500276246 0 -2 0
10 3 2.0898146257453547 14.163895084687413 3.3225011211953857 -1 -2 0
9 2 2.1513624737174344 14.141286634982963 0.18234743169604675 -1 -2 0
38 2 5.404305244214208 14.763645805542446 0.12991681061957708 -1 -2 0
39 3 5.376237946655116 14.888418637259184 3.3200660341236934 -1 -2 0
37 1 3.5888864255071176 15.251109134322844 1.7409244047124712 -1 -2 0
379 4 0.9615593582647453 19.295761341553238 7.960173854181612 0 1 0
380 5 2.7562013941659855 18.826707750320875 6.342406758294101 0 1 0
381 6 2.7178230170256263 18.83413585242261 9.610270131979643 0 1 0
349 4 -2.249145459556607 18.387369864723016 7.912890909323782 0 1 0
12 2 0.05016639102245008 16.312186866365444 0.16671085202259694 -1 -2 0
13 3 -0.16286542921160138 16.41548020279321 3.209035813701337 -1 -2 0
45 3 0.8576443580070339 19.47513089620378 3.182724327374689 -1 -2 0
44 2 1.0179366862628796 19.313108026828864 0.00983042588495169 -1 -2 0
40 1 1.319497781575616 17.595034084575214 1.733539140916342 -1 -2 0
71 1 2.329386858697789 20.581599942613767 1.668582572093756 -1 -2 0
73 3 4.171892828008636 20.12506697803136 3.113382841480839 -1 -2 0
72 2 4.062123721793129 20.013692356409663 0.00994450384155694 -1 -2 0
68 1 4.5183727741152575 18.27243480360097 1.706381956273682 -1 -2 0
41 2 3.2582419923814987 17.058257035430465 0.15481706919032298 -1 -2 0
42 3 3.1338980839967294 17.07680706582794 3.252128108177421 -1 -2 0