LAMMPS data file via write_data, version 27 Jun 2024, timestep = 50000, units = metal

540 atoms
6 atom types

0 37.59365801343109 xlo xhi
0 21.52779524830364 ylo yhi
-0.5143894487229258 9.897566830862171 zlo zhi
-27.49615054720427 0 0 xy xz yz

Masses

1 95.95
2 32.06
3 32.06
4 95.95
5 78.971
6 78.971

Atoms # atomic

393 6 24.492238722858964 9.542137304280875 9.750969917092796 0 1 0
392 5 24.54792233294836 9.65602677804058 6.472940619247482 0 1 0
260 1 -8.573478053151096 9.24575147267852 1.6484565329592544 0 -2 0
257 1 -6.592317940490088 7.027506078427616 1.4737619832254478 0 -2 0
256 1 -4.486202071079984 4.738676552043385 1.3337060682876567 0 -2 0
422 5 -9.986544297837353 10.431662538897854 6.4382453353982765 1 1 0
423 6 -9.954198449344123 10.623195860093478 9.76913862058589 1 1 0
418 4 -9.4150080750024 8.678762341241532 8.107067117280787 1 1 0
227 2 -2.7762984587397157 4.162000119589482 -0.3401417234710147 0 -1 0
228 3 -2.697373779487372 4.112934181659685 2.7143652587300804 0 -1 0
420 6 -7.529878047272607 8.339570515915334 9.69125401648003 1 1 0
419 5 -7.502787833675325 8.214005390919493 6.460271508098941 1 1 0
415 4 -6.965261102349545 6.463836570580577 8.086544981357296 1 1 0
258 2 -4.912520713373512 6.420700987192098 -0.30099583017026116 0 -2 0
259 3 -4.700950068738847 6.468934361942878 2.8459221157942514 0 -2 0
280 2 -1.8388948047722604 7.085312922359638 -0.4312312737018298 0 -2 0
281 3 -1.671664870686061 7.0446613734222945 2.6568245624774596 0 -2 0
448 4 -6.23910925507676 9.75025995548111 8.081943508521185 1 1 0
261 2 -7.097903336741025 8.670804218607957 -0.11114174913945245 0 -2 0
262 3 -6.648880969599169 8.794280659599261 3.141530975306028 0 -2 0
10 3 -3.767165706278497 9.423646040608537 2.8892076512264784 -1 -2 0
279 1 -3.4794608846336157 7.680593975939765 1.2054979232744558 0 -2 0
449 5 -4.333243290525032 9.264017848981885 6.356129928207852 1 1 0
450 6 -4.362675983078735 9.293058348493425 9.5750778748374 1 1 0
416 5 -5.168978448695565 5.967294719685093 6.448034202962094 1 1 0
417 6 -5.170225646178614 6.048308550177789 9.774250696306574 1 1 0
412 4 -4.476720184798501 4.176740273224873 8.062753904760315 1 2 0
282 1 -5.582890159660019 9.967056083846206 1.40898261608904 0 -2 0
9 2 -3.932194118004583 9.419873317839846 -0.318444527454562 -1 -2 0
225 2 -0.6599110807918144 1.8409723985897315 -0.4050164855818219 0 -1 0
226 3 -0.543494919986478 1.9826605757356548 2.742679036684791 0 -1 0
276 1 -1.4289687537875857 5.401765201589705 1.1274513923366798 0 -2 0
34 1 -0.39856370871902047 8.346954326406573 1.079879457699786 -1 -2 0
253 1 0.6807915917443234 3.118253961368385 1.0964607771864152 0 -1 0
277 2 0.3834985620248086 4.807084452232407 -0.5043894487229258 0 -2 0
278 3 0.3386453141251458 4.801919774096451 2.7146920769719065 0 -2 0
31 1 1.7556329015037235 6.104294271383292 1.1664245422313217 -1 -2 0
250 1 2.6591485276052924 0.8095523444511046 1.1890989748091756 0 -1 0
254 2 2.475816806688836 2.56290629458429 -0.4481431375989843 0 -1 0
255 3 2.4811903784724 2.6113613810243246 2.787425161393585 0 -1 0
6 1 3.9336235276871427 3.7742921151739575 1.1601435371043136 -1 -1 0
251 2 4.575369752595634 0.14081923489421788 -0.2467542025524263 0 -1 0
252 3 4.409086934790085 0.4297084298216595 2.7683127165978147 0 -1 0
478 4 -3.174257775883642 10.841602727609786 8.064448917898778 1 1 0
445 4 -3.803791714387464 7.446011903122241 8.014133500114164 1 1 0
479 5 -1.4020753950925138 10.319642025954742 6.442742143358482 1 1 0
480 6 -1.2553776091261521 10.390504575183245 9.784093879782453 1 1 0
447 6 -1.901259559917034 6.894826151872879 9.78192133885706 1 1 0
446 5 -2.0409521167453044 7.053528252916944 6.37242335316622 1 1 0
3 1 6.000962091227686 1.5330631919406066 1.2279491203527844 -1 -1 0
475 4 -0.706316973935334 8.523959433026416 8.057885369598472 1 1 0
444 4 -1.4015698135572519 5.120537180513971 7.922125982072057 1 1 0
7 2 5.684481746012856 3.238912032287533 -0.3596111448961842 -1 -1 0
8 3 5.480377538335771 3.3258286015831957 2.8034510219639572 -1 -1 0
414 6 -2.5944994316630607 3.8179920151082 9.58355156638658 1 2 0
442 5 0.508042344582917 4.774914243317927 6.219246545245523 1 2 0
443 6 0.5512111673196449 4.589663132803581 9.469867034930807 1 2 0
413 5 -2.7351885766521034 3.7780246392570533 6.287914411639015 1 2 0
33 3 3.466602555149588 5.517012239132934 2.791112351298242 -1 -2 0
32 2 3.592788547425205 5.50321341990279 -0.36248760001176966 -1 -2 0
60 2 6.823979747458279 6.254669840171566 -0.4490375516023395 -1 -2 0
476 5 1.0600352677691782 8.048880495114775 6.311772964423665 1 1 0
477 6 1.2467232736209817 7.997240166487603 9.582949785105662 1 1 0
439 4 1.0773453216169517 2.861023312530186 7.822948992939725 1 2 0
59 1 4.920122139696373 6.811575632839943 1.214922793059784 -1 -2 0
61 3 6.6449470634182415 6.323816766816625 2.7297715668765887 -1 -2 0
505 4 2.4363364840056274 9.600793853210233 7.934156284917614 1 1 0
472 4 1.7772481143673735 6.143326060752114 7.892954558632555 1 1 0
411 6 -0.09407714886420789 1.4538673044513568 9.591665638354268 1 2 0
410 5 -0.23432393323276926 1.3495060441577307 6.188455896220106 1 2 0
409 4 -1.9631420249873024 1.957420248961012 7.913169598562769 1 2 0
35 2 1.2381023281703027 7.844810039539607 -0.4679065974206213 -1 -2 0
36 3 1.2344434350460052 7.8124347468157005 2.676735303262062 -1 -2 0
62 1 2.63563343024252 9.038694848335908 1.2702179471140538 -1 -2 0
64 3 4.39107103758836 8.488174173990828 2.829111348314592 -1 -2 0
63 2 4.472184961182236 8.617606580590152 -0.2309021320903463 -1 -2 0
473 5 3.6717462650280384 5.903315185122539 6.272150642064824 1 1 0
474 6 3.5755508542890335 5.75423198794649 9.58251112180815 1 1 0
441 6 2.964869286709874 2.5683765523192212 9.483564093834282 1 2 0
440 5 2.9443078501034265 2.531899160858086 6.211578868389855 1 2 0
436 4 3.6363490517498613 0.7443774510693991 7.813757349272726 1 2 0
38 2 -0.8395178673063989 10.171068686175792 -0.3213418984646991 -1 -2 0
39 3 -0.6280534630651475 10.032769584203503 2.779926533958165 -1 -2 0
92 1 5.7717261981641474 9.926239264996768 1.3722603354335003 -1 -2 0
4 2 7.752119320289539 0.8839134770831566 -0.22943539809956673 -1 -1 0
5 3 7.628079576580029 0.9877827925928085 2.755486275644944 -1 -1 0
58 1 7.005027488216918 4.5063740425533885 1.2013845283172928 -1 -2 0
89 1 7.9422058866943805 7.524098795746727 1.2381749963504767 -1 -2 0
93 2 7.425262435642003 9.344293663175572 -0.3562851880954956 -1 -2 0
94 3 7.456918726036744 9.299373070645638 2.9116377327619847 -1 -2 0
26 1 9.12457204189568 2.1615351813436243 1.3270954418584253 -1 -1 0
30 3 8.626681116346457 3.87678359808894 2.7576003865266423 -1 -1 0
29 2 8.779559866138735 3.89632278316115 -0.34764486177021575 -1 -1 0
91 3 9.609303729921242 6.991580884782565 2.777583567419145 -1 -2 0
90 2 9.764704594599806 7.000019435020206 -0.28783616992850436 -1 -2 0
23 1 -16.244045175082128 21.343394285779596 1.4194463521288916 -1 -2 0
28 3 10.765205481265243 1.567239136788828 3.0396426486203842 -1 -1 0
27 2 10.909968095901968 1.4895508467571672 -0.19470104797647328 -1 -1 0
86 1 9.984214945975227 5.182214863027655 1.2397439883639354 -1 -2 0
87 2 11.967098790705371 4.640144111384394 -0.28025630192814166 -1 -2 0
55 1 12.057787734534253 2.8240647369283622 1.4020259849129573 -1 -1 0
52 1 14.329236756659292 0.6359332969506694 1.5830990278069763 -1 -1 0
506 5 4.216619787287279 8.954780971513276 6.246611414171405 1 1 0
507 6 4.264227256032149 8.988869221823792 9.54571523056996 1 1 0
535 4 5.463958304410364 10.370228053115273 7.862607438570961 1 1 0
502 4 4.943808085305262 7.186883511257035 7.928699589815783 1 1 0
504 6 6.812704896865814 6.777973003783132 9.58116417896568 1 1 0
503 5 6.657198920465164 6.7489541235649435 6.184796813719843 1 1 0
57 3 13.753976120030984 2.450601096398638 3.0315957471651385 -1 -1 0
56 2 13.934035690052239 2.4404847603394293 0.02438355341584226 -1 -1 0
536 5 7.326462112021725 10.061240848647163 6.247307737333922 1 1 0
537 6 7.443160143936457 10.033776919498907 9.48951795261102 1 1 0
532 4 7.910348082766102 8.2088922319572 7.783085690837486 1 1 0
499 4 7.351974619560234 4.990434690572208 7.858549396403486 1 2 0
469 4 4.360462991930997 3.9803966754208444 7.817138668876477 1 2 0
88 3 11.600835599382858 4.735871677395711 2.9477393069282374 -1 -2 0
470 5 6.138285625391841 3.557410298120372 6.127907261897447 1 2 0
471 6 6.172275932876479 3.5173501218134025 9.553176056885256 1 2 0
116 1 13.175541790337492 5.860487612498964 1.429837208906903 -1 -2 0
117 2 15.0391945028299 5.413369906062101 0.036236958507235247 -1 -2 0
500 5 9.233760149636058 4.562274217271944 6.198161416082581 1 2 0
501 6 9.242987350278888 4.527926657735453 9.525519636370701 1 2 0
496 4 9.813682443380854 2.7310628045893046 7.897858818963765 1 2 0
308 5 10.651641465876919 10.975548191871018 6.17306632809624 0 1 0
533 5 9.7480987123208 7.772368603546932 6.148386871305442 1 1 0
534 6 9.712663443788207 7.787782958842043 9.376065165984734 1 1 0
529 4 10.419605096191594 5.98687595347629 7.805417299746198 1 1 0
466 4 6.763460844489197 1.7519562879332105 7.851995228328417 1 2 0
468 6 8.561003966003444 1.3101924543919843 9.562789802504009 1 2 0
467 5 8.65195058202329 1.3632987320588945 6.279622753913873 1 2 0
119 1 11.067798207107089 8.145426140604318 1.3493573450066867 -1 -2 0
120 2 12.939861977647913 7.713680518200483 -0.1728149904025755 -1 -2 0
121 3 12.741735588157326 7.69856177738396 2.955434539592475 -1 -2 0
146 1 14.186181638185284 8.950771897076747 1.411077630221401 -1 -2 0
304 4 11.066601019446988 9.189048224452575 7.8526078937563675 0 1 0
497 5 11.709778340196381 2.3415525204781145 6.222964789912633 1 2 0
498 6 11.652804134179481 2.493510955082411 9.600289591934247 1 2 0
124 3 10.553971912801941 10.013322858132007 2.833099762458699 -1 -2 0
123 2 10.641854620428818 9.880235099508422 -0.2590503301967198 -1 -2 0
54 3 15.964900894885693 0.17930336278847783 3.1822240389393674 -1 -1 0
53 2 16.090154277548393 0.05807923924200701 0.12850833649003476 -1 -1 0
83 1 15.15253893928884 3.690886275542458 1.6734412319107508 -1 -1 0
118 3 14.627441513172121 5.424381390954438 3.0911084027785347 -1 -2 0
143 1 16.262998413687686 6.526395911853081 1.6705802930250173 -1 -2 0
147 2 15.929412703139727 8.1823578726114 0.024823942397679908 -1 -2 0
148 3 15.935065817118074 8.292105050342439 3.187075353822952 -1 -2 0
80 1 17.35282975767131 1.3587554073792656 1.6542797916333956 -1 -1 0
84 2 17.086721085759034 3.1646904272636585 0.1386018250688874 -1 -1 0
85 3 16.909424205181637 3.07211015171509 3.287959246875305 -1 -1 0
145 3 18.10491359155307 6.0163286163870895 3.2901136732250227 -1 -2 0
82 3 19.121480316510816 0.8134281357274745 3.205385195953131 -1 -1 0
81 2 19.120081462885913 0.8190391630302906 0.13993570559200863 -1 -1 0
113 1 18.39214683898943 4.266061531819265 1.8058262472333753 -1 -1 0
144 2 18.047062491644432 5.8940735400682165 0.10217285303769748 -1 -2 0
110 1 20.51765181186838 1.9112472457696585 1.7480219789000437 -1 -1 0
114 2 20.10920292199922 3.7747315755295996 0.20980629088855327 -1 -1 0
115 3 20.192896371787462 3.873378714342981 3.314596625080355 -1 -1 0
107 1 -4.852437472213007 21.347847047535513 1.7120352990068999 -1 -2 0
306 6 12.889133637921438 8.889753108927982 9.574881057745587 0 1 0
305 5 13.031828660474588 8.945807283383479 6.213241043982912 0 1 0
334 4 14.245895265398085 10.313493473915402 7.968877724400068 0 1 0
301 4 13.530663215926225 7.003098921871981 7.857464340410164 0 1 0
303 6 15.375348880774295 6.562780488676484 9.58055347044971 0 1 0
302 5 15.500372553076547 6.68938285522879 6.273918263594854 0 1 0
111 2 22.204690374608326 1.730413892157468 0.04831366669755375 -1 -1 0
112 3 22.351976437316665 1.4625291044045194 3.2185312933106633 -1 -1 0
335 5 16.082080015083374 9.880731376461181 6.24339035024123 0 1 0
336 6 16.00308672238877 9.940762640000896 9.607569434254794 0 1 0
531 6 12.202894766048404 5.542398300178953 9.504079426616949 1 1 0
530 5 12.297738569061222 5.653556492903039 6.202490005973035 1 1 0
298 4 16.034954715480048 4.785668937247286 7.952411116388568 0 2 0
170 1 21.516865912501068 5.036700344140631 1.708289640734768 -1 -2 0
331 4 16.651201232260668 8.04853688355969 7.968511491849752 0 1 0
526 4 12.923392786861445 3.8199610655243696 7.815748803996693 1 2 0
527 5 14.889899827929534 3.3408682160745653 6.1356871447757575 1 2 0
528 6 14.911004412634815 3.279426408162482 9.54286062597391 1 2 0
299 5 18.002234220498504 4.256845968244365 6.376927742757203 0 2 0
173 1 19.32842828933647 7.232534118090325 1.5761665697538603 -1 -2 0
175 3 21.028949243317367 6.884792844225752 3.1969353807101912 -1 -2 0
174 2 21.0608567586004 6.8113891989692075 0.09275485836103237 -1 -2 0
365 5 19.11833459250466 10.792219348961964 6.36641644399575 0 1 0
366 6 19.102941446685588 10.853481732158217 9.72150190440676 0 1 0
333 6 18.349093964442726 7.559798949884108 9.788817005309083 0 1 0
332 5 18.50084374496937 7.427327317995313 6.425436144980208 0 1 0
328 4 18.97382559934033 5.651496106103874 8.158560359851034 0 1 0
300 6 17.76942889246914 4.220990450927945 9.802678478933109 0 2 0
295 4 18.43006945523703 2.52733212721706 8.090949011662667 0 2 0
523 4 15.29126878764274 1.4499840276399563 7.984480920047758 1 2 0
524 5 17.17911314430442 1.139050565370113 6.460136008801439 1 2 0
525 6 17.063521344073557 1.1153136054688446 9.797810798103859 1 2 0
177 2 19.015173191729495 8.973605100849973 0.10252532907252082 -1 -2 0
178 3 18.94583391417548 9.146650117599862 3.2533338567709094 -1 -2 0
203 1 22.503127205637117 7.935317694434518 1.673342186762754 -1 -2 0
361 4 19.643914481352102 9.04035572124895 8.088269229525553 0 1 0
493 4 12.201521727301865 0.5313697807251716 8.021989210964682 1 2 0
176 1 17.219979711846783 9.502823434461407 1.580404065054529 -1 -2 0
206 1 20.387678877812228 10.2077978206081 1.7153234942768796 -1 -2 0
207 2 22.19749653671532 9.699240200841523 0.05535044895794849 -1 -2 0
208 3 22.086187753605376 9.763204615886833 3.2133054230468736 -1 -2 0
140 1 23.594476885693854 2.766512226880568 1.6917337531248942 -1 -1 0
171 2 23.27451840591337 4.633491655064727 0.09989437239088046 -1 -2 0
172 3 23.209874207073852 4.504391757716309 3.3152557397375517 -1 -2 0
204 2 24.16374229435461 7.436266675159301 0.1628152243942298 -1 -2 0
205 3 24.173393317365765 7.397913029687693 3.3338784843807283 -1 -2 0
137 1 25.819695735414573 0.4511249468221203 1.6008661086335976 -1 -1 0
141 2 25.34844012943151 2.3968166567845133 0.11911915278503524 -1 -1 0
142 3 25.293420967996234 2.2161004516972946 3.1148009185580414 -1 -1 0
200 1 24.616129877049197 5.730952714953175 1.7365672736234403 -1 -2 0
167 1 26.831104938326312 3.4527931719566816 1.6178082652537806 -1 -1 0
202 3 26.457443503326125 5.17115566327347 3.1909570818006068 -1 -2 0
201 2 26.3660633858856 5.261905546222567 0.07852265466711124 -1 -2 0
139 3 -0.033430790868620226 21.2949284859174 3.230296076416833 -1 -2 0
138 2 0.04039621694435092 21.413910846815245 0.04072972635293216 -1 -2 0
169 3 28.497575028298677 2.936900954763644 3.1646086822057695 -1 -1 0
168 2 28.44582397104078 2.9368864448914627 -0.07412344301268849 -1 -1 0
164 1 28.877327025610207 1.153846887267107 1.66109380085076 -1 -1 0
166 3 30.778557140808132 0.695853498892564 3.0395003432406855 -1 -1 0
165 2 30.493639398408856 0.6605974970088943 -0.013077701966143558 -1 -1 0
363 6 21.407180842777958 8.6321634659315 9.75311011875098 0 1 0
362 5 21.531884379754594 8.536740798743493 6.4922839995893655 0 1 0
358 4 22.070743339605073 6.659865887843645 8.160496177362424 0 1 0
391 4 22.697508852081917 9.993768312294021 8.089760350332407 0 1 0
359 5 23.882861458898343 6.254683985194865 6.485427868289567 0 1 0
360 6 23.90897999910336 6.3565909724119445 9.830570431648232 0 1 0
329 5 20.90759449378155 5.221719296156336 6.665368222618904 0 1 0
330 6 20.82074474959964 5.345086485470061 9.858310455722604 0 1 0
355 4 24.488548310800205 4.509236914476505 8.205685616152246 0 2 0
197 1 29.94492826183775 4.0719326361373795 1.543945869489995 -1 -1 0
388 4 25.11088203624676 7.723224726150404 8.091078648854769 0 1 0
325 4 21.41184350871988 3.4408020740703713 8.279728456731407 0 2 0
326 5 23.232724266208535 3.054684787269118 6.479114186486928 0 2 0
327 6 23.451598669617585 2.9198891228492134 9.801590973079248 0 2 0
229 1 27.834366627898707 6.4300325726084955 1.522461476291817 -1 -2 0
230 2 29.496806814861653 5.857766656485175 -0.09864661167153625 -1 -2 0
231 3 29.68366568132493 5.888748599983873 3.0766164906914053 -1 -2 0
389 5 26.97216487236526 7.212242138137915 6.38568530844788 0 1 0
390 6 26.94288987956213 7.340025892099547 9.80509226397274 0 1 0
356 5 26.397313367316965 4.132776072254536 6.412417388859107 0 2 0
357 6 26.49286282931402 4.005543615752071 9.821087324793 0 2 0
297 6 20.16917088839463 2.0601862463786036 9.88756683086217 0 2 0
296 5 20.251708376975582 2.111615883299647 6.441163347123225 0 2 0
322 4 23.750584458679672 1.2367592964363843 8.035067676345339 0 2 0
352 4 26.92866164846489 2.180304940193266 8.014825193112495 0 2 0
232 1 25.642089446145352 8.65094355820884 1.6568085903831424 -1 -2 0
233 2 -10.15397402686547 8.318299657696468 0.02931099810939391 0 -2 0
234 3 -10.125906452660567 8.152421369089062 3.1724461144332703 0 -2 0
387 4 27.557132404993254 5.521320593890217 8.04770536428305 0 1 0
323 5 25.63247397525897 0.6423670110915978 6.290002061983622 0 2 0
324 6 25.758747399759248 0.590458022660241 9.610533107840572 0 2 0
236 2 -12.201443576941138 10.42164321783242 -0.030762619103875323 0 -2 0
237 3 -12.290130869176027 10.476638362364477 3.1578436230801006 0 -2 0
198 2 31.558132689071343 3.5922146970032065 -0.15012581346351536 -1 -1 0
199 3 31.685725717981047 3.362017572168316 2.9605259477816683 -1 -1 0
194 1 32.104680433086806 1.7319511321180414 1.317547729921284 -1 -1 0
196 3 33.89291617373449 1.3679544276887592 2.8849859616284665 -1 -1 0
195 2 33.83373653318535 1.200466550591483 -0.305716558827079 -1 -1 0
224 1 -2.323308197040164 2.395369061529588 1.2311700632037483 0 -1 0
221 1 37.28658688593765 0.17550449366377419 1.2492203520851028 -1 -1 0
385 5 29.394494005948925 4.968086727459003 6.485905518523373 0 2 0
386 6 29.4036322241992 5.098273224724775 9.69087550995531 0 2 0
382 4 29.99664968457013 3.153262405952136 8.091378883833412 0 2 0
384 6 32.007354659806296 2.6595966742965227 9.708993891310904 0 2 0
383 5 31.867116722068587 2.853526596871564 6.329611643581651 0 2 0
354 6 28.740438472266337 1.7967014093950118 9.740426898580354 0 2 0
353 5 28.74161973943803 1.7104797828718938 6.3386593026351425 0 2 0
379 4 32.568155450833935 0.9444782704163366 8.018603056739462 0 2 0
380 5 34.25400281049569 0.38746943765168956 6.280747027351316 0 2 0
381 6 34.44966883246038 0.5227921841495974 9.600904459231309 0 2 0
247 1 -22.581542343651936 20.018807524817827 1.3630687968416537 0 -2 0
275 1 -19.312205045865714 20.63603402652952 1.3609662928060928 0 -2 0
248 2 -20.783807196518946 19.45937293428436 -0.10510155625658567 0 -2 0
249 3 -20.841996371898578 19.553576427790333 3.0351441112248856 0 -2 0
1 2 -17.57057013341975 20.112172011329974 -0.194578335054195 -1 -2 0
244 1 -20.51892708569008 17.64899218830089 1.459290218862035 0 -2 0
245 2 -18.67565124488422 17.165286189127308 -0.07906987114736418 0 -2 0
214 3 -18.789880419907963 17.186453161348222 3.0382200463021607 0 -2 0
246 3 -18.7666194690101 17.022295325248745 3.0512201350261114 0 -2 0
407 5 -25.24598462513293 20.817947065350147 6.0980242087092655 1 1 0
408 6 -25.017047168066544 20.871432744901327 9.521904145491101 1 1 0
403 4 12.957659007073293 18.93198688032984 7.699887714187548 0 1 0
406 4 10.541527689130096 21.122334751717773 7.911036957623994 0 1 0
437 5 5.5730147424018215 0.17690681046458 6.167206238728211 1 2 0
438 6 5.478064241297161 0.2350599146410817 9.404819978105339 1 2 0
405 6 -22.81354844489439 18.563436536368847 9.432931133750703 1 1 0
404 5 -22.729284115676034 18.499213747651023 6.178411673269118 1 1 0
433 4 -21.41496952662363 19.971129535706662 7.818905063869899 1 1 0
241 1 -18.33191792738163 15.33313397436381 1.5617682876602221 0 -2 0
2 3 -17.718961833590555 20.1187264994395 2.890947235715433 -1 -2 0
24 2 -14.373888847800194 20.85151556712152 -0.06049409497803817 -1 -2 0
25 3 -14.502800390447412 20.94751862059622 3.034679587275959 -1 -2 0
272 1 -17.321560290975498 18.298404018592308 1.5058966983599478 0 -2 0
242 2 -16.647114370280462 14.788485271567724 0.040557674662602815 0 -2 0
243 3 -16.559230544878663 15.110214736826885 3.1570185982550845 0 -2 0
396 6 22.147682224748063 11.939745005654895 9.629413238354385 0 1 0
395 5 22.134894495451064 11.819475259028893 6.452324519439366 0 1 0
20 1 -14.089177591255536 19.043326567705787 1.568337662913342 -1 -2 0
21 2 -12.259958694100161 18.64539797971307 0.11441759980456886 -1 -2 0
22 3 -12.365461041273159 18.70420796832112 3.2022297273108955 -1 -2 0
49 1 -11.037104154530663 19.882048672667757 1.7222736929745839 -1 -2 0
51 3 -9.267818653563012 19.30846540470836 3.2442332171884063 -1 -2 0
273 2 -15.412020723529158 17.806740951897552 -0.04485085639365227 0 -2 0
274 3 -15.501121549629405 17.799443109854558 3.1087531894501375 0 -2 0
269 1 -15.031841930227872 16.02052308750851 1.4672034089401635 0 -2 0
271 3 -13.417598412020464 15.642812828052785 3.060820067840728 0 -2 0
270 2 -13.182040299721926 15.607718083394577 -0.025922611836116938 0 -2 0
239 2 -14.530813380258625 12.723407288002871 0.0611985241802838 0 -2 0
398 5 -17.857354150312705 14.169757881417253 6.2167004657911225 1 1 0
17 1 -11.984216426512459 16.83247032762755 1.5870112734297197 -1 -2 0
18 2 -10.047475821542168 16.472831052864024 0.06581611032510157 -1 -2 0
19 3 -10.23408218139129 16.352706093757494 3.310448901924954 -1 -2 0
399 6 -17.816815095097244 14.15487187089479 9.679278202080198 1 1 0
266 1 -12.988263354251925 13.722772961802287 1.6451477544625497 0 -2 0
427 4 -16.59454291060352 15.55082475579948 7.917793751245951 1 1 0
14 1 -9.805438196646737 14.666014639408518 1.722645174405324 -1 -2 0
267 2 -11.327425967884697 13.432954770850468 0.0990880793379656 0 -2 0
268 3 -11.21573121918669 13.273960092612965 3.2325815198948242 0 -2 0
263 1 -10.835433777062915 11.606849752661999 1.6427037100868576 0 -2 0
432 6 -17.295570299210425 17.428898077694104 9.69159379240618 1 1 0
431 5 -17.20301018919846 17.430067494021763 6.382633121171073 1 1 0
430 4 -19.117793281838726 17.810499340283283 7.946966839537104 1 1 0
435 6 -19.6751164511556 19.583992201638775 9.555063451896523 1 1 0
434 5 -19.557421371485074 19.601753251569185 6.197939697240032 1 1 0
463 4 -18.290611430799668 20.983060163543566 7.953190324724195 1 1 0
464 5 -16.548886382008668 20.569678690781732 6.359772653895524 1 1 0
465 6 -16.58479060949245 20.704153671998657 9.631315477680495 1 1 0
402 6 -20.357694472879903 16.337071414990664 9.521674735077795 1 1 0
401 5 -20.341635543021297 16.347718974391228 6.2921948208013365 1 1 0
460 4 -15.949899526086275 18.793469673009955 7.974919340400913 1 1 0
428 5 -14.649109139377655 15.191733926094113 6.365306466619953 1 1 0
429 6 -14.847045821665905 15.081611594451548 9.744222670679585 1 1 0
424 4 -14.183119983418084 13.27473675570594 8.074828788776188 1 1 0
457 4 -13.50892054804648 16.569778992775746 8.151677801870095 1 1 0
462 6 -14.223925582953227 18.551038346635153 9.774490872496049 1 1 0
461 5 -14.04204299391354 18.432024815867123 6.388684049989237 1 1 0
494 5 -13.486127898937571 21.494433046603742 6.339785716701883 1 1 0
490 4 -12.854139822688603 19.92851547541266 8.100002071128753 1 1 0
495 6 13.943319505159398 0.247983464356057 9.671289973719425 1 2 0
240 3 -14.512207358024272 12.500266789108561 3.226617967637079 0 -2 0
421 4 -11.773330882664178 11.031433319757419 8.10071380371633 1 1 0
452 5 -6.92366236017793 11.606749811530095 6.399177950118548 1 1 0
453 6 -6.849203792379139 11.486817637480229 9.630041460146757 1 1 0
77 1 -7.931732068408777 20.547688747465973 1.6619777510961762 -1 -2 0
108 2 -3.170041983687999 20.866233440911895 0.17701057698680825 -1 -2 0
109 3 -3.033012257510464 20.695282580480235 3.2525441797005423 -1 -2 0
50 2 -9.386539554098567 19.32961137082926 0.16569272635237478 -1 -2 0
46 1 -8.883784783883737 17.598805249931832 1.8283911180857815 -1 -2 0
15 2 -8.160424187966841 14.078963031429204 0.05588906861394691 -1 -2 0
16 3 -8.026583865190569 14.096842298132517 3.277308892186609 -1 -2 0
264 2 -9.040661086379687 11.165836275673259 0.03385837491436611 0 -2 0
265 3 -8.938245864647424 11.019293445031858 3.205437275795171 0 -2 0
425 5 -12.435553926731977 12.912586333674971 6.37042265887167 1 1 0
426 6 -12.363235358437459 12.795699421652778 9.732527586901892 1 1 0
451 4 -8.797988005157261 12.025128392616882 8.043327938121264 1 1 0
78 2 -6.166074849245482 20.022868500689015 0.17221600939799078 -1 -2 0
79 3 -6.234191471993889 20.088847911865727 3.2492696536576977 -1 -2 0
104 1 -2.7062200046694964 19.02063884254103 1.735060510513081 -1 -2 0
47 2 -7.208834445950252 17.091320041052274 0.18811531163235007 -1 -2 0
48 3 -6.992268714836349 17.065676406024515 3.333841679666571 -1 -2 0
43 1 -6.712652689578983 15.278756166557988 1.6787662588952128 -1 -2 0
11 1 -7.627387292099307 12.285433073589964 1.6590042408790833 -1 -2 0
74 1 -5.757949282871481 18.323507797934266 1.7544315978454157 -1 -2 0
76 3 -4.025909133493492 17.782272480275164 3.249787946582482 -1 -2 0
75 2 -4.030106205688035 17.79131781902148 0.21134325390684552 -1 -2 0
45 3 -5.020541357379997 14.642747417573332 3.1940088090478205 -1 -2 0
12 2 -6.086901432453066 11.766827759447926 -0.0007329294631914976 -1 -2 0
13 3 -5.851579655321666 11.61555464790904 3.1541512261740228 -1 -2 0
454 4 -11.133377790607765 14.287823788341878 8.10311753677542 1 1 0
456 6 -9.197412350704637 13.88810443534917 9.71701241644223 1 1 0
455 5 -9.243007496602498 13.800270688458225 6.360450314077243 1 1 0
71 1 -3.651564358541998 15.90491615934493 1.6558439078792682 -1 -2 0
44 2 -4.909060737553398 14.732106153413751 0.04875347549103826 -1 -2 0
40 1 -4.52049413936623 12.864303126641849 1.5038631693035929 -1 -2 0
484 4 -7.9568964522286345 15.26376695739399 7.9596827543190605 1 1 0
73 3 -1.7883515774274736 15.355256130165857 3.042102897371898 -1 -2 0
72 2 -1.9648246329082026 15.462199393641688 -0.014523918331894543 -1 -2 0
458 5 -11.77073168456779 16.225000635333856 6.460917422867672 1 1 0
459 6 -11.605041536048828 16.039247197484762 9.764602422637893 1 1 0
68 1 -1.5357028644074706 13.652949924918385 1.4190209657826691 -1 -2 0
41 2 -2.872711495385723 12.415037704546965 -0.25194091863535145 -1 -2 0
42 3 -2.7853856696902985 12.267691142194073 3.028237700715343 -1 -2 0
487 4 -10.412854371627047 17.563525150022112 8.069403874266904 1 1 0
37 1 -2.503834023377846 10.655741224629091 1.2885373792525008 -1 -2 0
491 5 -10.952014278337696 19.38687045860714 6.388852476535819 1 1 0
492 6 -11.061789303862545 19.40744574744351 9.778520220453759 1 1 0
520 4 -9.8159387605825 20.877026835065923 8.08869116233598 1 1 0
489 6 -8.440059865843422 17.16523159716676 9.644699076219803 1 1 0
488 5 -8.603825870686165 17.163592518696614 6.350590892634826 1 1 0
522 6 -7.938964935319773 20.289899343529537 9.72009436970701 1 1 0
521 5 -7.913500613137686 20.34806113500493 6.414962400937016 1 1 0
517 4 -7.267844705988216 18.521159859481315 8.07046465051133 1 1 0
292 4 20.831087744131377 0.19989439030559725 8.0865434501609 0 2 0
481 4 -5.625146641175625 12.967098687988532 8.042727549418357 1 1 0
485 5 -6.18696821097058 14.844726899815651 6.240802158340237 1 1 0
486 6 -6.10638077816385 14.868362392535309 9.669181354527854 1 1 0
519 6 -5.3773058483115275 18.035181190150443 9.705096486047289 1 1 0
518 5 -5.4972567390529266 18.227315532263088 6.417779626847515 1 1 0
514 4 -4.839119852110408 16.27761068822249 7.94736928057221 1 1 0
293 5 -4.844734767948398 21.320368537857696 6.284937041779577 0 1 0
294 6 -4.847181258767738 21.247275333410617 9.736081323449413 0 1 0
508 4 -0.008130497663588027 11.867393485415644 7.995638560608517 1 1 0
509 5 1.6890662351304704 11.31634193065431 6.2640706238046295 1 1 0
510 6 1.9225552351378554 11.392738408638714 9.552402670562435 1 1 0
161 1 3.425133418532807 20.4091364323548 1.5903074899941074 -1 -2 0
191 1 6.644948435850413 21.101890893595982 1.4401947846746395 -1 -2 0
106 3 -0.9759543094252374 18.407569295468093 3.1500247250793056 -1 -2 0
105 2 -1.1328611944000992 18.47534108332012 0.02955089148697464 -1 -2 0
101 1 -0.6318044617871856 16.701579945503557 1.4926457764840304 -1 -2 0
69 2 0.15114286497902252 13.150076002703196 -0.20948912826866609 -1 -2 0
483 6 -3.6766886525279965 12.601599750754769 9.724629809022977 1 1 0
482 5 -3.785390285985824 12.63157961175118 6.331823659551821 1 1 0
134 1 0.3216918562747779 19.605911646085836 1.571909884272555 -1 -2 0
135 2 2.1379277934742116 19.034104635751515 0.05325635333957009 -1 -2 0
136 3 2.1667324072471517 18.90506204333859 3.1018738266736676 -1 -2 0
162 2 5.0932069438903165 19.819216731357688 0.03549360456577605 -1 -2 0
163 3 5.328484721055179 19.966504468591722 2.971107203588948 -1 -2 0
102 2 1.1240432846126664 16.29171897696825 -0.10402573430507359 -1 -2 0
103 3 1.1092141523206815 16.234954370505367 3.0280071940297413 -1 -2 0
98 1 1.537991103915656 14.42574636349609 1.3467243203735952 -1 -2 0
70 3 0.22953434954386942 13.165656772637977 2.9375332459831234 -1 -2 0
65 1 0.5630904050367045 11.334194604190674 1.2633702519839598 -1 -2 0
512 5 -0.700180411749507 13.559470888523974 6.303805151411196 1 1 0
513 6 -0.6464640409009142 13.70054716280035 9.573979043285252 1 1 0
158 1 5.6215356638656795 18.043370156414767 1.4940112457421755 -1 -2 0
131 1 2.4922406555901997 17.26085747541453 1.4937700144907047 -1 -2 0
67 3 2.2831886388877307 10.713271878394568 2.979606443640303 -1 -2 0
66 2 2.2925912356564577 10.87958482164551 -0.31635956130788756 -1 -2 0
511 4 -2.554220137884205 14.065814120745559 7.981937968090811 1 1 0
132 2 4.278580081828053 16.916692724999898 -0.08705363917013312 -1 -2 0
133 3 4.226596006595478 16.907211958842865 3.0402948959369165 -1 -2 0
99 2 3.2199906911522165 13.941187148069126 -0.16974788208875757 -1 -2 0
100 3 3.3186986299121837 13.93279045992919 2.9147728281527496 -1 -2 0
95 1 3.637941943449956 12.065448445166332 1.3515796682039838 -1 -2 0