LAMMPS data file via write_data, version 27 Jun 2024, timestep = 30000, units = metal

540 atoms
6 atom types

0 37.59365801343109 xlo xhi
0 21.52779524830364 ylo yhi
-0.5628257817725376 9.870480119526604 zlo zhi
-27.49615054720427 0 0 xy xz yz

Masses

1 95.95
2 32.06
3 32.06
4 95.95
5 78.971
6 78.971

Atoms # atomic

143 1 -11.51492726208961 11.04158585143486 1.4512442469121367 0 -1 0
473 5 -11.651167768609715 9.5282358687288 6.363797507138723 1 0 0
474 6 -11.705788193371326 9.465031572147316 9.72326013630822 1 0 0
464 5 33.03962070259471 2.672429371260309 6.271833369300601 0 1 0
465 6 33.14166235538526 2.8201551505262064 9.56587445410233 0 1 0
204 2 -3.5510569256901414 11.888734956672302 -0.013049326636016352 0 -1 0
468 6 30.577886191586835 5.037544393941195 9.651588388509172 0 1 0
467 5 30.581719111462075 5.146303819880297 6.344078725294282 0 1 0
205 3 -3.491453369998583 11.891816673127593 3.063941005558359 0 -1 0
496 4 -5.7804726745810004 6.419011722654746 7.934606811831706 1 1 0
175 3 -6.7585723430495666 11.267015999699545 3.1229932736666903 0 -1 0
174 2 -6.688581698219272 10.87624887285363 -0.1698963564816473 0 -1 0
470 5 28.226058797681716 7.268648949978599 6.3210683435198725 0 1 0
471 6 28.232593907400002 7.308643164792974 9.771400469898426 0 1 0
497 5 -4.005859441703895 5.898123797738248 6.230964072366663 1 1 0
498 6 -3.776379730487684 6.041533629877583 9.544303259429867 1 1 0
173 1 -8.575522638169405 11.738270111390026 1.4580818036596221 0 -1 0
170 1 -6.316078755577754 9.45744492085262 1.6192657512379498 0 -1 0
171 2 -4.481685174467706 8.783463063043984 0.0814949521178485 0 -1 0
172 3 -4.391014512677175 8.880501407993666 3.1815553384078608 0 -1 0
140 1 -4.0550466533299625 7.14748800307687 1.6603292137885202 0 0 0
469 4 26.28977091905763 7.656668499813106 8.066883570347006 0 1 0
499 4 -8.138980421195877 8.660858956718435 7.980844188119653 1 1 0
500 5 -6.181433081712239 8.371932306109953 6.361063497496269 1 1 0
501 6 -6.101496435838104 8.138402750779749 9.535321580201494 1 1 0
200 1 -3.0097972052327386 10.188019545096285 1.5261895896984523 0 -1 0
144 2 -9.815073967466606 10.334506225726278 0.043280726571636376 0 -1 0
145 3 -9.828093849898616 10.625450712024058 3.2123084957036823 0 -1 0
114 2 -7.7421561428649275 8.151956290562575 0.185615465053014 0 0 0
115 3 -7.599485582970807 8.354470487268372 3.2833064812046096 0 0 0
493 4 -3.2222508378362384 4.143371294638679 7.869801552220791 1 1 0
462 6 35.388132014067914 0.4227318433434193 9.55512625770348 0 1 0
494 5 -1.3733481133719596 3.5757206606147913 6.080672068484435 1 1 0
495 6 -1.423898940859281 3.6520417974102 9.536911408179773 1 1 0
520 4 2.2777109136100298 2.7823105135858444 7.75484895915249 1 1 0
491 5 1.0251628805797466 1.3280479445461053 6.097750491085177 1 1 0
492 6 0.9912578921555073 1.4858987642698835 9.476118373803303 1 1 0
490 4 -0.7998000663132574 1.7238134892694859 7.866227674986208 1 1 0
487 4 -25.75858833788665 21.084588953004566 7.857781795043515 1 0 0
489 6 -23.92158409049988 20.666587931956183 9.570626860120925 1 0 0
461 5 35.68900727063113 0.3250891917556565 6.145116434890372 0 1 0
257 1 3.199095893028002 11.501223874272647 1.5853357547960905 0 -1 0
258 2 4.88439273399564 11.110271724848817 -0.009719575013559809 0 -1 0
259 3 4.9523526249281495 11.026322387809865 3.0875546371506846 0 -1 0
488 5 -23.83467992248838 20.40547827600438 6.288564906931924 1 0 0
230 2 1.909189387633661 10.229461328698042 -0.09449411762770477 0 -1 0
231 3 1.884139446738869 10.041724705899153 3.0571663452094846 0 -1 0
229 1 0.1948634451818408 10.61128453900645 1.5314851604860014 0 -1 0
197 1 2.32787710563682 8.460142970084133 1.4370993354247161 0 0 0
524 5 1.6826877544912975 4.525100072253236 5.947367894965482 1 1 0
525 6 1.594272099100544 4.615322300135892 9.339813708673072 1 1 0
202 3 -1.236152490391412 9.662138603334123 3.0542026502614683 0 -1 0
201 2 -1.3566148247888732 9.769935284035691 -0.15586074270606654 0 -1 0
198 2 3.8989248590802106 7.931735111240915 -0.28023945219028673 0 0 0
199 3 4.040015879225894 7.915839350162582 2.9659477379310557 0 0 0
523 4 -0.1240903512726822 5.011618361646946 7.795525760426212 1 1 0
295 4 3.021651877547628 6.038006693107671 7.625867101776921 0 1 0
168 2 0.7956256411772853 7.292910952331235 -0.12953947653699904 0 0 0
169 3 0.9795141968172514 7.15461510121001 2.909663385175528 0 0 0
521 5 4.205763164699389 2.3008522042539017 6.157298006935688 1 1 0
522 6 4.2178377764369746 2.3273950729672395 9.444390891921632 1 1 0
167 1 -0.8290060423399804 7.866017974791672 1.5797459435800099 0 0 0
194 1 4.248674571028708 6.273212919364133 1.2968253985693445 0 0 0
527 5 -0.7317663665259038 6.7997909964453696 6.135075985522139 1 1 0
526 4 -2.627717580351563 7.341828482659363 7.866490261273933 1 1 0
528 6 -0.6265938653888041 6.900019925651223 9.43309365506938 1 1 0
165 2 2.8082977407888303 5.081399072284723 -0.27013124935096217 0 0 0
166 3 2.899252869680327 5.013890734059299 2.960616441205995 0 0 0
164 1 1.1090293498278232 5.42237380992924 1.339539217079641 0 0 0
297 6 4.767734568085697 5.600909417025432 9.354954441409804 0 1 0
141 2 -2.3496289974278426 6.784921666045409 0.013954307749623767 0 0 0
142 3 -2.211897168032818 6.643127248885556 3.0652607994968486 0 0 0
299 5 2.477289760167125 7.877589692198945 6.071347480398823 0 1 0
300 6 2.2989803995993534 7.723663798268253 9.348895820269922 0 1 0
298 4 0.5596137591051571 8.315556959189935 7.7477680268107605 0 1 0
138 2 -0.32953152762694593 4.232782794533646 -0.20593719002664962 0 0 0
139 3 -0.17808609093053263 4.311210130017453 3.0224330855619943 0 0 0
256 1 5.30857961263014 9.218887842253631 1.4973072646585912 0 -1 0
137 1 -2.0482218832420975 4.900027175423142 1.4546838432573408 0 0 0
163 3 5.158488967039332 2.8070105467175828 2.772307543020643 0 0 0
162 2 5.033390372291333 2.9266850017483 -0.33942390461370203 0 0 0
135 2 1.845524644429164 2.0955166486733603 -0.2307945116800716 0 0 0
136 3 1.6989465032614384 2.0650246850671086 2.9564412064859455 0 0 0
161 1 3.3122899805260007 3.297974347228421 1.32817138454337 0 0 0
530 5 -2.9287404228197014 9.032216213045354 6.1921879611371615 1 0 0
531 6 -3.217797384210284 8.9954843894413 9.72939839439665 1 0 0
328 4 3.5069036039868187 9.369502472619285 7.874055355920124 0 0 0
134 1 0.13961272998271052 2.5430341980846687 1.4153188379687804 0 0 0
517 4 4.761023613965218 0.39668195171655485 7.859291160427124 1 1 0
296 5 4.846275161457728 5.54405281327747 6.041451731790724 0 1 0
279 1 6.401871080796378 12.274749737139016 1.4683967599550025 0 -1 0
195 2 6.12697002649293 5.797619834183882 -0.3622770989732112 0 0 0
196 3 6.040862720533458 5.7561669717486295 2.7875122522224833 0 0 0
293 5 7.451714501597665 3.2121186058513493 6.14128461017981 0 1 0
518 5 -20.955118221942094 21.46705600075978 6.284001681412729 1 0 0
519 6 6.624683691346946 0.026411399817596846 9.490980444017943 1 1 0
294 6 7.18929429591736 3.4997226965717703 9.45396986507326 0 1 0
289 4 7.920544062310972 1.4942727723955556 7.897170004757758 1 1 0
319 4 10.999702643905888 2.4172413704363955 7.919934600797861 0 1 0
291 6 9.590960095041124 0.9478370796379377 9.599050946728232 0 1 0
290 5 9.825698341433055 0.9832354047428818 6.115648289289407 0 1 0
540 4 -17.14128677204673 20.775866813932474 7.828848876704374 1 0 0
280 2 8.247741439800267 11.767668263143534 -0.034418714064838214 0 -1 0
281 3 8.130342009261222 11.819446872788586 3.0609916026610415 0 -1 0
35 2 11.141925869340373 12.437370195680284 -0.055806322010995175 -1 -1 0
36 3 11.194360083508569 12.5009911883784 3.0811710418219014 -1 -1 0
31 1 11.540471031852988 10.663335668471417 1.5011388800375023 -1 -1 0
292 4 5.498507696737178 3.7677904347002715 7.736704983145334 0 1 0
276 1 8.563554796631465 9.91757564004239 1.566165157950553 0 -1 0
278 3 10.28386009804027 9.369686344956255 3.083679334137829 0 -1 0
277 2 10.352801480116746 9.336118615965438 -0.08113664795502924 0 -1 0
227 2 7.222357905092535 8.832554202705031 -0.11463996160325952 0 0 0
228 3 6.99798396541892 8.625773734983854 3.022609687094604 0 0 0
323 5 10.425556382256158 4.327374440615422 6.27941275092849 0 1 0
324 6 10.348021478983359 4.317771538039796 9.479305087928948 0 1 0
322 4 8.470093859085159 4.91663408309657 7.769604196982976 0 1 0
224 1 7.41017387863279 6.921188363819118 1.3337464504586165 0 0 0
253 1 10.627300655038143 7.537225313913614 1.4187433827607072 0 0 0
254 2 12.475618860366824 7.195937309247425 -0.11515879075948679 0 0 0
255 3 12.217438852927923 7.188782879512625 2.9466269087387618 0 0 0
352 4 11.583499067661062 5.802095076484691 7.824072812529601 0 1 0
225 2 9.21304629676919 6.438225015285998 -0.134613104658219 0 0 0
226 3 9.12978665778832 6.313962482152851 2.940292697381668 0 0 0
250 1 12.693046418619693 5.438361474675029 1.3870594657870638 0 0 0
326 5 7.722400994590158 6.754087295133194 6.064214646281523 0 1 0
327 6 7.815801825604358 6.696117706318104 9.392553945915989 0 1 0
325 4 5.935315225552209 7.135016339562361 7.813642365271502 0 1 0
320 5 12.977736549177665 2.084390853382249 6.2940125968815375 0 1 0
321 6 12.784488591902713 2.1449576867622944 9.684033111997188 0 1 0
192 2 8.287574276687167 3.510772418944043 -0.4144719201644081 0 0 0
193 3 8.189986352708342 3.4963369412993597 2.789377697851119 0 0 0
191 1 6.474409860919401 4.005736231948679 1.2782223782726627 0 0 0
221 1 9.588873371047026 4.658655921450115 1.2762333141702669 0 0 0
222 2 11.533826424204882 4.130811408377264 -0.30461995851965945 0 0 0
223 3 11.392524149026412 3.9979620164022727 2.941835579779417 0 0 0
356 5 11.044457773408249 7.691211248942421 6.139229225634465 0 1 0
357 6 10.855633357976924 7.576122650467302 9.482546270328777 0 1 0
355 4 9.120048311383611 7.996545906226929 7.704681820382735 0 1 0
33 3 13.266173949761265 10.101623066735831 3.0145318563489223 -1 -1 0
218 1 11.92112086200296 2.38935676648897 1.313383949089965 0 0 0
329 5 5.284610466088137 8.899389114951157 6.182940040389833 0 0 0
330 6 5.398997231824338 8.783735381199214 9.584271665137383 0 0 0
387 4 12.221633372859177 9.058611213193007 7.964303920653423 0 0 0
32 2 13.20416868264342 10.149076995431061 -0.05057518290927616 -1 -1 0
6 1 13.674843053572667 8.383286084922732 1.5251627678970225 -1 0 0
59 1 14.588627049566623 11.388889076965384 1.5493229883070552 -1 -1 0
316 4 13.549796639040922 0.360203637424544 7.968905774762747 0 1 0
349 4 14.091425602793016 3.6101779661989224 7.952763505934609 0 1 0
317 5 15.367704850647542 0.006772984490265934 6.38067625799356 0 1 0
318 6 15.262674103127834 0.1244991239452991 9.690704047013284 0 1 0
350 5 15.925870372270648 3.1395178487339668 6.282961617970047 0 1 0
351 6 15.903758446321607 3.23868810728524 9.726791280658015 0 1 0
346 4 16.548696156436986 1.485602810049314 8.015449704148995 0 1 0
376 4 19.582536555879045 2.4376706577345577 8.07843698044283 0 1 0
60 2 16.51265389932563 10.689595890897571 -0.06395477646914227 -1 -1 0
347 5 18.45087669480032 0.968383853108336 6.50757002355946 0 1 0
348 6 18.414097807507826 0.9045084844803828 9.841340940379204 0 1 0
343 4 -8.503748581215538 20.741578050953315 8.09333350188825 0 0 0
89 1 17.768815565493888 11.995218432294674 1.5370647273869928 -1 -1 0
61 3 16.255193858411833 10.843127025555443 3.0206853760066372 -1 -1 0
90 2 19.614149214268693 11.316093550951669 -0.012386754304058622 -1 -1 0
91 3 19.592385557048775 11.632306310410755 3.1738486049912615 -1 -1 0
86 1 19.944356836300074 9.676739955893629 1.716616861814595 -1 -1 0
380 5 18.9422406253 4.254174449189639 6.3093087802395615 0 1 0
381 6 18.972027015801192 4.1243554704585375 9.798019872803772 0 1 0
58 1 16.85383023253295 9.009960303540526 1.6653808522634386 -1 -1 0
30 3 18.610374942995094 8.44353104427247 3.3082286949714264 -1 0 0
379 4 17.055735183874063 4.595337362892985 7.987777769868112 0 1 0
7 2 15.537169677842858 7.944380745863817 -0.040245804091346836 -1 0 0
8 3 15.544985284418868 7.808812219694533 3.1530581894950287 -1 0 0
29 2 18.68514528996584 8.56570058081147 0.13745151678212245 -1 0 0
26 1 18.94823943302738 6.592863904675272 1.7508209898237153 -1 0 0
353 5 13.495171052463059 5.305381616419835 6.1806473374832755 0 1 0
354 6 13.292028451490891 5.380959523389941 9.545397119685544 0 1 0
409 4 20.250942433019848 5.591939162886588 8.0569216855518 0 1 0
3 1 15.901546468615013 6.103045333840431 1.525230299268034 -1 0 0
4 2 17.72813906183018 5.505315288803446 -0.06925857639253256 -1 0 0
5 3 17.350490776383513 5.519819937408741 3.218759088868352 -1 0 0
28 3 20.681812835940956 5.973526262602234 3.3165494548209193 -1 0 0
27 2 20.76046817149558 6.102052877585234 0.15953842826900927 -1 0 0
413 5 19.755216179803572 7.461384886417333 6.3391896022587835 0 1 0
382 4 14.63713885866354 6.810473482480119 7.934490894011488 0 1 0
384 6 16.4953915455146 6.341318892674452 9.688735900578614 0 1 0
383 5 16.39634763026251 6.407460918866109 6.331279050097781 0 1 0
344 5 -6.550487538320837 20.214026330302257 6.461499562634743 0 0 0
251 2 14.58573788696672 5.016193935876277 -0.11177330832097523 0 0 0
252 3 14.532069030926 4.740362911575241 2.8733298597748145 0 0 0
275 1 17.936319700967587 3.805442541124934 1.5611541206177637 0 0 0
23 1 21.01239104964339 4.261802061897437 1.661634972720366 -1 0 0
414 6 19.602591753450685 7.392705772880927 9.638935984941961 0 1 0
412 4 17.82839471752829 7.8057866435743195 7.98574712658478 0 1 0
87 2 21.609536759135786 9.077145942689414 0.1798969502666236 -1 -1 0
88 3 21.78212682934187 9.196015098693168 3.241723109962183 -1 -1 0
219 2 13.513310780627867 1.8851886387255052 -0.2318532098238506 0 0 0
220 3 13.549851681813134 1.891562521784223 2.8732487736889554 0 0 0
247 1 14.884167149811837 2.9526606727713824 1.298146249166617 0 0 0
248 2 16.68898832684909 2.573329967180112 -0.1670746071546051 0 0 0
249 3 16.554033030433803 2.4621239483405724 2.886782894374443 0 0 0
1 2 19.764829180592006 3.222552455708529 0.14158288307008593 -1 0 0
2 3 19.773487851381354 3.068000953283892 3.287919093101019 -1 0 0
416 5 17.22888060222097 9.651457526706508 6.378194377127936 0 0 0
417 6 17.222822293636842 9.548328006136405 9.666213872525631 0 0 0
385 5 14.127856127291425 8.669305629680013 6.324514602291991 0 1 0
386 6 14.089623999394165 8.526705368746327 9.548903249361919 0 1 0
444 4 20.923058197784087 8.745037291952087 7.971642402813583 0 0 0
466 4 28.769535281297145 5.432427536756681 8.043111306609442 0 1 0
441 6 25.19077844281851 6.3656662012692795 9.724276421211355 0 1 0
440 5 25.20820428399029 6.29202429787083 6.409188434643972 0 1 0
437 5 27.629018986817528 4.021938975513586 6.543531008920149 0 1 0
438 6 27.537563769109664 4.098790963196166 9.790467637128604 0 1 0
55 1 22.126953009018358 7.324437922805274 1.783652522319758 -1 0 0
433 4 28.328023757954973 2.1629798989189966 8.09967223972383 0 1 0
436 4 25.74096931197461 4.448345726475548 8.11935116082362 0 1 0
120 2 -15.075172566145449 12.000760806928316 -0.08943233407593121 0 -1 0
121 3 -14.877987031098574 12.343846778464231 3.018460843435701 0 -1 0
407 5 24.56647091494374 2.9856406601568573 6.446930610960642 0 1 0
408 6 24.546542502497708 2.98787126844938 9.77078077780768 0 1 0
405 6 27.01504717314889 0.7619807707360737 9.8004452326665 0 1 0
404 5 27.101127669961386 0.7551240016462025 6.450883619532297 0 1 0
116 1 23.097486552005282 10.282538736188021 1.5530504834160246 -1 -1 0
377 5 21.57706945598904 2.0705792709693855 6.408774692405184 0 1 0
378 6 21.46595466150612 1.9559769565994134 9.731470625898968 0 1 0
406 4 22.640780464499542 3.4310628176595817 8.085855133645056 0 1 0
373 4 22.19983604611322 0.1903600580128478 8.038667945540666 0 1 0
403 4 25.210737371496254 1.2201362382846337 8.144353848419716 0 1 0
374 5 -3.338653134989876 21.377487502465055 6.4788752536941585 0 0 0
375 6 -3.6294570426313713 21.185556172301425 9.759454913856098 0 0 0
400 4 0.06999444331097208 20.466886804019083 8.103619377200783 0 0 0
118 3 24.902393670482407 9.90288295138145 3.2574495058198543 -1 -1 0
117 2 24.68867412418725 9.642249199553465 -0.004506508019199224 -1 -1 0
113 1 -9.330907055668115 8.777292209701157 1.7789937788719579 0 0 0
83 1 25.146542899007034 8.104661880984157 1.7360164634239688 -1 0 0
57 3 23.832664863424544 7.005028329258194 3.3428184364249947 -1 0 0
56 2 23.827310780531114 6.790148003103869 0.08628888920494754 -1 0 0
84 2 26.822952445775293 7.5858956458605205 0.13976239668588042 -1 0 0
85 3 26.832990788293664 7.671869035783315 3.346120314193769 -1 0 0
411 6 22.116566761880605 5.216161185601122 9.700310996575256 0 1 0
410 5 22.08536102622208 5.208024764678912 6.37879418533964 0 1 0
439 4 23.30548589307373 6.680978564212265 7.973392784848707 0 1 0
52 1 24.15265770021603 5.121955663841133 1.725917402301697 -1 0 0
80 1 27.19143429249638 5.893744804509029 1.8064842594277213 -1 0 0
81 2 28.94390990719387 5.219430859457085 0.2726576090311833 -1 0 0
82 3 29.047815008365138 5.398167372691856 3.3581647540776935 -1 0 0
442 5 22.743135172570796 8.504309213283255 6.259672664233956 0 1 0
443 6 22.726058291201443 8.297877503521955 9.668519943328437 0 1 0
24 2 22.70095702140225 3.7494991285494264 0.19678696665427314 -1 0 0
25 3 22.742067052064904 3.8251534862503602 3.142419973234441 -1 0 0
54 3 25.85029703851994 4.607805560874717 3.440548971930395 -1 0 0
53 2 25.899492173804532 4.516149277096387 0.20862481558148976 -1 0 0
77 1 29.411088234315816 3.479256047222306 1.675897531220614 -1 0 0
20 1 23.111648659720593 2.038492519523041 1.6486005337138534 -1 0 0
49 1 26.3180388137411 2.740851647416089 1.766684515042684 -1 0 0
50 2 28.066978674879543 2.188161777234746 0.10957442352096779 -1 0 0
51 3 28.073635258389174 2.2837989437961768 3.2327207574026824 -1 0 0
463 4 31.310107194171987 3.255181668898948 8.004299667868612 0 1 0
460 4 33.73867806527191 0.8678640700385255 7.852405826037372 0 1 0
110 1 -7.205909752572209 6.4653113326995895 1.8106507251791255 0 0 0
435 6 30.111224461978672 1.70369247273353 9.673838744882055 0 1 0
434 5 29.97421264251546 1.7483728198218451 6.420916951095708 0 1 0
432 6 4.943762227479537 20.93069351974606 9.68839910935033 0 0 0
431 5 5.042811987165128 21.112158834522305 6.214015627962672 0 0 0
430 4 3.1518298003548564 21.4353609473235 8.079056410297637 0 0 0
111 2 -5.583165421413539 5.945032850034083 0.18513086086411112 0 0 0
112 3 -5.313995618857681 6.05120636930604 3.2629326072557436 0 0 0
107 1 -5.1273557477638265 4.304277099602247 1.6828558828748943 0 0 0
108 2 -3.599384619295892 3.8065401020490497 -0.14018803405157357 0 0 0
109 3 -3.313497331507099 3.622941612546568 3.007308490483026 0 0 0
78 2 31.121744394196796 3.2241285199657357 0.0938499322326459 -1 0 0
79 3 31.095796648586127 3.1425389415170675 3.20760729477024 -1 0 0
104 1 34.56409046316784 1.920027147849024 1.527642109220411 -1 0 0
458 5 10.563972981751439 19.60991933298354 6.2558147359763945 0 0 0
514 4 -20.13472351368779 19.750744238145646 7.906338889113518 1 0 0
484 4 -23.384564114707594 18.607168996997828 7.971927981827681 1 0 0
485 5 -21.384433789155853 18.22354616290221 6.328860041795812 1 0 0
486 6 -21.42778093693744 18.348711316254736 9.53703273915837 1 0 0
481 4 -20.79228007778705 16.536649231312467 8.087373599057171 1 0 0
159 2 7.2198957658743455 0.5849677913162115 -0.5528257817725376 0 0 0
160 3 7.272896026110156 0.5581832339288884 2.7904387455304067 0 0 0
155 1 -19.981404795046597 20.31007768674103 1.231511114143943 0 -1 0
158 1 5.498310396714686 1.0933018363612685 1.0929124686468863 0 0 0
131 1 2.3749266014740056 0.31536329294525206 1.27568901967785 0 0 0
133 3 -23.298678423751902 21.33454512692027 2.7394285071362616 0 -1 0
127 3 -19.172267743873775 16.764805783781934 2.796828079137349 0 -1 0
132 2 -23.377063674185955 21.32291501305081 -0.35880787888317456 0 -1 0
129 2 -21.173138749590855 18.916927434987606 -0.3472775620241629 0 -1 0
130 3 -21.258178549864517 19.166293908932364 2.728585702050629 0 -1 0
147 2 -11.81949963526634 12.752463235599745 -0.23189951413673027 0 -1 0
148 3 -11.805518040267945 12.807079275963718 2.9521459802535466 0 -1 0
515 5 -18.305788221653607 19.29631726943206 6.235852442113097 1 0 0
516 6 -18.272216130073048 19.365394054280596 9.499892988056194 1 0 0
288 6 -15.314935260053113 20.558212582501632 9.565753629647704 0 0 0
287 5 -15.04511732506098 20.23396525197502 6.417691884379932 0 0 0
313 4 -11.557865992760052 19.708588500312395 8.147709390132885 0 0 0
146 1 -13.544795951069968 13.261352038823373 1.3599238021127282 0 -1 0
539 4 -14.600961109945565 18.61496004102194 8.16082539403779 1 0 0
285 5 -12.83507233818373 18.20939760053277 6.44569914969833 0 0 0
151 3 -14.113002884400075 15.068539307175374 2.906820292902473 0 -1 0
150 2 -13.906462330691122 15.098230657114577 -0.12822718007970513 0 -1 0
188 1 8.640484728370431 1.7146663372035844 1.0881868354444821 0 0 0
511 4 -17.752605299537485 17.532107366046045 7.911157554577122 1 0 0
512 5 -15.818070116481493 17.060797612499318 6.3392733289646435 1 0 0
513 6 -16.05490186484683 17.21134450529978 9.701195993271407 1 0 0
286 6 -12.739851556828048 18.196954861921895 9.802840083143218 0 0 0
179 1 -12.695499128222618 16.219100835913444 1.302742838400582 0 -1 0
482 5 -19.035310910901284 15.940704226282358 6.240586764450469 1 0 0
483 6 -18.948680133065924 16.316312874470842 9.642386476793268 1 0 0
212 1 -11.453327148324895 19.461421900513624 1.2471272832347118 0 -1 0
508 4 -15.216326602392071 15.327119332073908 8.121248523671339 1 0 0
509 5 -13.32906246508565 14.974575632300548 6.576999821078378 1 0 0
510 6 -13.478328403176201 14.863793396664477 9.840188474729597 1 0 0
216 2 -12.094078579138719 21.30163174024547 -0.38339847163960833 0 -1 0
217 3 -11.917419038908665 21.008674831712494 2.821724885372841 0 -1 0
478 4 19.136052761355952 14.31968575711743 7.974810968473459 0 0 0
505 4 -12.818682513332192 13.124243066946736 8.260233156184455 1 0 0
479 5 -16.50403489724823 14.1013425348171 6.4270641406925035 1 0 0
476 5 -14.098554788698085 11.767992152601309 6.4560013032925605 1 0 0
477 6 -14.289041362758075 11.741072024190622 9.689541144001312 1 0 0
480 6 -16.573261917515755 13.949982966572588 9.807647693224967 1 0 0
475 4 21.481494784772707 12.191698797888739 8.054021463236968 0 0 0
472 4 24.074032031333598 9.799677163435337 8.035005576528357 0 0 0
215 1 13.860419656891423 0.0050154005850336705 1.3366845026065686 0 0 0
189 2 10.55903618954172 1.2804526656874382 -0.4003518460819985 0 0 0
190 3 10.435598999230962 1.2776131295943034 2.712844544050316 0 0 0
186 2 -14.97400157873118 20.493141252100816 -0.19318318354073566 0 -1 0
187 3 -15.088506191829362 20.419874298468923 2.8298223552518182 0 -1 0
538 4 -12.151736626026901 16.398649631033575 8.240314337849256 1 0 0
182 1 -14.620594545501033 18.6009687770994 1.1378154683848656 0 -1 0
185 1 -16.741985262010758 20.982336890425746 1.2260246018984657 0 -1 0
184 3 -12.80539808194019 18.3412250557227 2.852800904451648 0 -1 0
183 2 -12.789806618098062 18.19682931322904 -0.33736507958677825 0 -1 0
153 2 -16.206649686188374 17.419026714893985 -0.2208657005989685 0 -1 0
154 3 -15.934610514309098 17.46156462991968 2.8304096993073022 0 -1 0
152 1 -17.674014941247865 18.076118128289885 1.369364322581015 0 -1 0
156 2 -18.098031982425024 19.64577795851983 -0.34256998639080766 0 -1 0
157 3 -18.22581219054349 19.968215432804698 2.962718166954501 0 -1 0
149 1 -15.689421698424962 15.694957987456073 1.250673849588147 0 -1 0
203 1 -5.2202135821962985 12.246865172342627 1.5861116675680982 0 -1 0
177 2 -8.802021578718318 13.346090176752602 -0.23058047458543796 0 -1 0
178 3 -8.762721814022033 13.49213127859977 2.9955076195046626 0 -1 0
345 6 -6.557367756350636 20.204960293784218 9.708172859676914 0 0 0
176 1 -10.535347868967163 13.974289015296433 1.297905921821269 0 -1 0
235 1 -4.326812280461632 15.228760509295181 1.496240517824488 0 -1 0
207 2 -5.775358135879162 13.913718635129353 -0.1906771210469957 0 -1 0
208 3 -5.476723497944413 14.020559841952382 3.0887612301172696 0 -1 0
206 1 -7.348307863455052 14.419265867769576 1.5514551204131852 0 -1 0
314 5 -9.697313715532454 19.15642084550254 6.469894837375129 0 0 0
315 6 -9.68038686445225 19.252016232491773 9.841094559741812 0 0 0
340 4 -5.946250035085132 18.343543765741217 8.177020601187106 0 0 0
180 2 -10.783402018010403 15.971594879319657 -0.3384303963326523 0 -1 0
181 3 -11.05440260805493 15.645338084361416 2.8890881407947453 0 -1 0
244 1 16.929200384617197 0.6559587528174723 1.344913033745528 0 0 0
239 2 -4.492078722580147 17.014232401111087 -0.1355202822729269 0 -1 0
240 3 -4.55661540116371 17.068424257435712 3.013178696104552 0 -1 0
211 3 -7.702947150510893 16.2964728871908 3.1210123291031238 0 -1 0
210 2 -7.655122581868306 16.196132427565452 -0.023150668612942196 0 -1 0
209 1 -9.420742727195426 17.037395059394605 1.563184296888078 0 -1 0
310 4 -9.027981109128541 17.402699417252805 8.049251474094815 0 0 0
341 5 -4.256846122758415 17.867553536284365 6.393563852865646 0 0 0
342 6 -4.073312314134353 17.86605987395346 9.736391965438907 0 0 0
213 2 -9.57486490651015 18.67735243088428 -0.18487812670616943 0 -1 0
238 1 -6.386200309515826 17.553767439935744 1.564053253534223 0 -1 0
266 1 -3.1591222482575643 18.22584716081066 1.5203894998272116 0 -1 0
283 5 -10.315534672524915 15.85287192799133 6.565741272483234 0 0 0
284 6 -10.307166835117082 15.965913840254013 9.860480119526605 0 0 0
312 6 -7.188212554347018 17.030893325504906 9.701994664123612 0 0 0
311 5 -7.287828616926536 16.943246909126906 6.395895618491573 0 0 0
242 2 -6.546401355438802 19.24957683936334 -0.07635073454540531 0 -1 0
243 3 -6.662309575495266 19.497392126194686 3.0908971959709453 0 -1 0
241 1 -8.321959052720691 20.025933937196776 1.5016506486606254 0 -1 0
269 1 -5.241723988821141 20.490921259222322 1.5891493713069307 0 -1 0
271 3 -3.5155031559378718 20.092814471138745 3.073741899948446 0 -1 0
270 2 -3.466072813248775 19.99330679499077 -0.07554653813946656 0 -1 0
307 4 -6.710192873014056 15.091742896078214 8.116909906164075 0 0 0
308 5 -5.028587295091049 14.584242740070671 6.378685213641251 0 0 0
309 6 -4.8312149261837884 14.514670634739044 9.6529375599386 0 0 0
506 5 -11.077022178567749 12.793290543062973 6.491988043922993 1 0 0
507 6 -10.983442325611362 12.764100276221782 9.828848938566093 1 0 0
502 4 -10.446954733296595 11.114514267468607 8.130879735597304 1 0 0
535 4 -9.681270640309629 14.086979063062515 8.111899936648829 1 0 0
504 6 -8.56791342932062 10.538586371648687 9.78015521800475 1 0 0
529 4 -4.812364300606151 9.545863552830262 7.9411245604822325 1 0 0
272 1 20.14533011533628 1.3893681531495397 1.6798847313758125 0 0 0
503 5 -8.695789670079526 10.474968114874889 6.41585991085811 1 0 0
214 3 18.61049236460872 0.2258378611552551 3.018840102455995 0 0 0
245 2 18.871664258821923 0.2231049207161596 -0.09755974775496559 0 0 0
246 3 18.489254588351645 0.1447819211874765 3.0568649081882455 0 0 0
533 5 -5.532052076280825 11.432292407846775 6.421939023425607 1 0 0
534 6 -5.439379643915358 11.156142704716807 9.662127604977373 1 0 0
532 4 -7.345523332569508 11.81731680633556 8.092745330173358 1 0 0
536 5 -7.926779120454265 13.50092151434128 6.437308713885274 1 0 0
537 6 -7.919447316114247 13.801337123422044 9.78771494975388 1 0 0
273 2 21.83904538456693 0.7792286273071828 0.07819935864382062 0 0 0
274 3 21.973118673684773 0.6854198311665988 3.2521342403481763 0 0 0
304 4 -4.236621781203386 12.745998424028137 8.020718332846625 0 0 0
337 4 -3.7607862175747 15.947495714783665 8.100821231668476 0 0 0
232 1 -2.0888057848018335 13.105320218990219 1.5097373153656 0 -1 0
233 2 -0.42097231061610607 12.442400878533768 -0.00997012943691404 0 -1 0
234 3 -0.22245408722957227 12.346106503688931 3.1902204005190136 0 -1 0
261 2 2.8211382335417445 13.08367394361145 0.05174356688200607 0 -1 0
262 3 2.8293562667003007 13.341860662126923 3.0632236951429737 0 -1 0
260 1 0.9965104560141262 13.551245185046193 1.6003671772225874 0 -1 0
370 4 -2.965444440231404 19.409114412200864 8.029976499423508 0 0 0
401 5 1.8488097680283944 19.928487388124783 6.37605288929716 0 0 0
402 6 1.9046311799010986 19.933335838847807 9.79448814867729 0 0 0
236 2 -2.525625263414296 14.769652707044504 -0.16442435049970827 0 -1 0
237 3 -2.4206729628982755 14.69760840296918 2.99723635911254 0 -1 0
264 2 0.7711381029099297 15.224483942902673 -0.0007290384300032184 0 -1 0
282 1 4.287246589427675 14.42976427656062 1.4904836584417065 0 -1 0
371 5 -1.1540354105182506 18.95699716045685 6.3527629828156424 0 0 0
372 6 -1.145418952339824 19.000253527915678 9.772818951868016 0 0 0
21 2 24.91958362962604 1.614836416321744 0.15051992027602987 -1 0 0
22 3 24.82466562552809 1.5584555904880923 3.2301923835848627 -1 0 0
17 1 -2.1796558469809213 21.343231565835573 1.623859443641533 -1 -1 0
263 1 -1.0199303148402092 15.919267690671353 1.5089642023156604 0 -1 0
265 3 0.4613664715497549 15.419032125334642 3.012695705932347 0 -1 0
12 2 3.7372933036690466 16.083077723617215 0.02178223898595386 -1 -1 0
11 1 1.9772116656228949 16.551365097444332 1.5680545605054454 -1 -1 0
13 3 3.8313202571687963 16.06653782530234 3.1838713846888216 -1 -1 0
367 4 -0.5668628688216492 17.05491021894113 7.945924253882923 0 0 0
397 4 2.49112543181131 18.079780353994003 8.039067409838493 0 0 0
399 6 4.332978723237414 17.690441587494835 9.655633635320026 0 0 0
268 3 -1.4845045293331491 17.769839089886066 3.07170028403032 0 -1 0
267 2 -1.3764199608254872 17.853245994354708 0.009273908698396125 0 -1 0
15 2 1.6249915464960742 18.47313067660279 0.08336488596439899 -1 -1 0
16 3 1.6835290436088535 18.453569069423043 3.072986150207748 -1 -1 0
14 1 -0.010978317098249635 19.073757227903588 1.4895595228556517 -1 -1 0
44 2 4.621110389205462 19.05842862226807 -0.0034536555014482774 -1 -1 0
369 6 1.2183041723299046 16.717557968163504 9.74509798214498 0 0 0
368 5 1.3260670855302596 16.763097360950212 6.326633616929659 0 0 0
45 3 4.914957584794631 19.114682213069305 3.043195905028134 -1 -1 0
43 1 3.0720052723046747 19.734061752492515 1.51832534398217 -1 -1 0
339 6 -1.8909347449765213 15.442611568016785 9.717796190460346 0 0 0
338 5 -2.0220648807569184 15.825646231109442 6.241741640475105 0 0 0
364 4 1.8059193221802217 14.847583340993088 7.978788934852577 0 0 0