LAMMPS data file via write_data, version 27 Jun 2024, timestep = 70000, units = metal

540 atoms
6 atom types

0 37.59365801343109 xlo xhi
0 21.52779524830364 ylo yhi
-0.35379401100608826 9.821384909947541 zlo zhi
-27.49615054720427 0 0 xy xz yz

Masses

1 95.95
2 32.06
3 32.06
4 95.95
5 78.971
6 78.971

Atoms # atomic

455 5 24.292109898420378 10.162783359886845 6.399935051834482 0 1 0
456 6 24.233863555252658 10.121525007468554 9.657005729967468 0 1 0
170 1 -10.03010532681133 10.093742730856475 1.4460736328801307 0 -2 0
479 5 -5.33519288608829 6.760066826687883 6.339265006310813 1 1 0
480 6 -5.20266251456803 6.703335377204539 9.657454271319528 1 1 0
478 4 -7.159637127634465 7.155460423795264 8.056913557240987 1 1 0
202 3 -5.252446037473268 10.524258200469808 2.884455683168949 0 -2 0
201 2 -5.298952208785593 10.337257067666542 -0.26765621875732154 0 -2 0
169 3 -3.1482526195083262 8.10754416869634 2.848878494996665 0 -1 0
475 4 -4.78976443279772 4.874899879918257 7.956266483411008 1 1 0
200 1 -6.993778848060155 10.855550459877561 1.345890899937279 0 -2 0
167 1 -4.927713838499768 8.662230259659946 1.3183231232072197 0 -1 0
481 4 -9.63602167121116 9.272787047662689 8.048992826100724 1 1 0
483 6 -7.839080079666297 8.873363421818402 9.672550631752538 1 1 0
482 5 -7.813311933083538 8.89904036863583 6.346564718140602 1 1 0
171 2 -8.394142564588144 9.543023367074815 -0.1614918604701282 0 -2 0
172 3 -8.257567386352626 9.715132325966682 3.011406040984787 0 -2 0
141 2 -6.324081494315153 7.216683631978838 -0.045804526989222424 0 -1 0
142 3 -6.215940939591203 7.481146118511577 2.9709067839399137 0 -1 0
513 6 -4.676926635146982 9.945053337508394 9.72987552120986 1 1 0
508 4 -4.0487265675718245 8.162882921070596 8.001575961481121 1 1 0
140 1 -8.031537451679233 7.808081323328373 1.4938923898423202 0 -1 0
139 3 -4.174898703749657 5.1131011130137765 2.9941203525889515 0 -1 0
138 2 -4.230115695345127 4.9924370248760646 -0.06492781047536199 0 -1 0
512 5 -4.7166336553440305 10.006911551996076 6.4491260923545175 1 1 0
168 2 -3.248341677149627 8.00763475670476 -0.2867951712066065 0 -1 0
452 5 26.74704027079589 7.904692745011709 6.398346433562845 0 1 0
453 6 26.667896345424452 7.894937593373513 9.749296802384032 0 1 0
229 1 -3.8573552671784865 11.587990558823773 1.2033254508571913 0 -2 0
137 1 -5.935063216116669 5.534007751397603 1.565862528008258 0 -1 0
164 1 -2.8488076125167154 6.275880485331704 1.3312060676098183 0 -1 0
230 2 -2.0508960744566798 10.976882318740737 -0.34379401100608825 0 -2 0
231 3 -2.148451465273953 11.033363951471157 2.8036489545623984 0 -2 0
197 1 -1.7828066184108025 9.159354044753133 1.2735050717613352 0 -1 0
165 2 -1.0505982380009493 5.671913721343855 -0.1292706682718922 0 -1 0
166 3 -1.1502845393427257 5.813344938216624 2.982775486626498 0 -1 0
256 1 1.4487956060432268 9.82417181779984 1.2318027897247417 0 -2 0
227 2 3.2016612764206087 9.313097999512365 -0.25057139110158533 0 -1 0
228 3 3.1586825738248923 9.345342329901465 2.903145709337131 0 -1 0
276 1 4.486364877949152 10.551657859129913 1.3701571701930106 0 -2 0
476 5 -2.948658276548343 4.445595341888994 6.323667030203566 1 1 0
477 6 -2.86888639951174 4.516701955024718 9.614792688320959 1 1 0
505 4 -1.693057612101024 5.93096213638232 7.921345296947503 1 1 0
472 4 -2.3382688048157103 2.6949080672431727 8.053664647112653 1 1 0
473 5 -0.4874536345184943 2.234141887643295 6.364435013260039 1 1 0
474 6 -0.4723943727529428 2.287449799898509 9.671003984316645 1 1 0
506 5 0.22961879798202386 5.519807651805358 6.246253090309684 1 1 0
507 6 0.16366025227057027 5.5489838740782105 9.523018992717702 1 1 0
502 4 0.7808486993099314 3.6795048350705795 7.930917149881709 1 1 0
469 4 0.2132140849357392 0.47766736005478017 7.988757016614671 1 2 0
224 1 3.5115327104367746 7.56601038748513 1.3560803586496926 0 -1 0
535 4 1.4789082160846245 6.965896512032515 7.91378158426866 1 1 0
504 6 2.6882326948620503 3.2662171088742804 9.608321212172335 1 1 0
503 5 2.6219695328008776 3.1867049726084598 6.248240117046855 1 1 0
470 5 2.041121217931095 0.003522619968503461 6.299806507898127 1 2 0
471 6 -25.457185634416508 21.51664234107421 9.619258475506864 1 1 0
198 2 0.02835197079604369 8.602381051286816 -0.24944033731915358 0 -1 0
199 3 -0.02061268583980307 8.60499171430591 2.781026685904281 0 -1 0
196 3 2.09235075828986 6.416843394656509 2.9474396649152808 0 -1 0
195 2 2.13991613394897 6.399728901585084 -0.18580911275831988 0 -1 0
194 1 0.3836473567703286 6.849189446523072 1.3492341807207595 0 -1 0
192 2 4.2913387586030876 4.2022648222229195 -0.1696988886241086 0 -1 0
193 3 4.306849984113748 4.078325788855841 3.0118965612269215 0 -1 0
509 5 -2.2794028080254876 7.789950648538339 6.309485743629404 1 1 0
510 6 -2.20127607536223 7.720909444142013 9.617289172553 1 1 0
191 1 2.500547919199224 4.654738161020181 1.393941491770861 0 -1 0
536 5 3.297455413482647 6.589544459645453 6.31887442024793 1 1 0
537 6 3.2701162157022203 6.62412709780208 9.62996362896059 1 1 0
499 4 3.2842303162744377 1.448678463856468 7.929013513630335 1 2 0
161 1 -0.7407055440443412 3.9476335502440016 1.5046706428551317 0 -1 0
162 2 1.0567756176915508 3.512439875721339 -0.14830014665480715 0 -1 0
163 3 1.1152363573059567 3.464251902252813 2.9675104002888353 0 -1 0
188 1 4.581513967228519 2.3517942447275777 1.3178726625350263 0 -1 0
538 4 -0.9983852166594872 9.12669436474784 8.00409185356731 1 1 0
283 5 0.8488087543294206 8.78161267753798 6.311749128463103 0 1 0
284 6 0.8541597957955103 8.757114806767621 9.68442498291383 0 1 0
158 1 1.432056254099774 1.7021885016007405 1.4267304493157977 0 -1 0
532 4 3.8923676431355556 4.734288589106487 7.957906358141288 1 1 0
312 6 3.924975069997516 9.850233188324696 9.787152306966075 0 1 0
311 5 3.9595657324603906 9.882609226997255 6.422346732690687 0 1 0
307 4 4.5541858879621975 8.046784751149263 8.056895423955869 0 1 0
159 2 3.231065663710767 1.1441559300974278 -0.21299941632508657 0 -1 0
310 4 2.106695024138696 10.18766067550474 8.058623226114303 0 1 0
135 2 -2.1203464629325737 2.717195901787364 -0.12712833985146946 0 -1 0
136 3 -1.9848662837076583 2.6330674068421476 3.026195875209241 0 -1 0
160 3 3.253365110851482 1.2493291967159885 3.078783011331013 0 -1 0
133 3 0.07135096881778152 0.4484606657482558 3.0644821834369553 0 -1 0
225 2 5.328324080411449 7.035457807885214 -0.12242679347960565 0 -1 0
226 3 5.2500446382905155 7.071045133162041 2.9160206289790915 0 -1 0
500 5 5.093735522383135 0.9873300479170666 6.2542216255711125 1 2 0
501 6 5.1426345489961856 0.9624731092287533 9.562732948359374 1 2 0
277 2 6.330757421932862 9.989709006088503 -0.12051699691647051 0 -2 0
278 3 6.253703692921411 10.069627546623801 3.070561631509106 0 -2 0
221 1 5.720423067504884 5.2358030253203225 1.4961530402880154 0 -1 0
253 1 6.658642726848191 8.310512646596791 1.431962914602918 0 -1 0
189 2 6.375645728011358 1.8570721235635335 -0.23748143455599582 0 -1 0
190 3 6.265976925473209 1.8229324750854217 2.954598877600343 0 -1 0
223 3 7.430366687238142 4.770112659211896 3.067140516995386 0 -1 0
222 2 7.501610004488332 4.799289103173816 -0.08164929842314778 0 -1 0
250 1 8.768068706446282 6.03964789159425 1.4914519956112 0 -1 0
254 2 8.460937575387673 7.818630854646356 -0.13750586636143144 0 -1 0
255 3 8.350365011722593 7.758711443793192 3.0364924285353556 0 -1 0
6 1 9.692584887713647 8.943241825948645 1.479838348590393 -1 -1 0
33 3 9.416129275405424 10.657460037885524 3.1418199997695084 -1 -2 0
32 2 9.419131261553959 10.719963952113792 -0.008779005155048744 -1 -2 0
251 2 10.497999965850857 5.6134889805369355 -0.15313036967694982 0 -1 0
3 1 11.954079448697723 6.731291982074995 1.3987033625036243 -1 -1 0
7 2 11.518087654891321 8.525966055007743 -0.17098485773466404 -1 -1 0
8 3 11.467230088906575 8.486643808755236 3.0154879766646516 -1 -1 0
58 1 12.951819367709527 9.655362889081644 1.476883292290383 -1 -2 0
533 5 5.709135893138262 4.385169470525936 6.260592076252528 1 1 0
534 6 5.732653644555077 4.311080192989849 9.600758453681028 1 1 0
529 4 6.356413113462059 2.436912490162254 7.874195693342575 1 1 0
304 4 6.917943797503718 5.821741806510245 7.999787771980062 0 1 0
306 6 8.729813683119117 5.355766024150645 9.64410274988977 0 1 0
305 5 8.735111985640488 5.346052484995804 6.265866569140236 0 1 0
531 6 8.100771615984527 1.985549399098854 9.581677968962197 1 1 0
530 5 8.161305104601192 2.0671197311784697 6.233178742182052 1 1 0
526 4 8.77386923855892 0.16786746870983132 7.923734732044124 1 2 0
301 4 9.306043516703715 3.512867845555522 7.959977817631684 0 1 0
334 4 9.934713001494341 6.78139799330383 7.995793496411912 0 1 0
528 6 -16.908974134978358 21.219159332058577 9.662319038092411 1 1 0
252 3 10.586824041274882 5.5186502058497044 2.9981399991437976 0 -1 0
308 5 6.283746204203675 7.612074477806746 6.3024185554573116 0 1 0
309 6 6.386501063553374 7.560468115004729 9.627234946893076 0 1 0
303 6 11.131604874675878 3.05153844088695 9.629293828840591 0 1 0
247 1 10.933387579391905 3.860073435365829 1.394065921362634 0 -1 0
339 6 9.399125990270457 8.649109590179213 9.635187446194296 0 1 0
338 5 9.3996668729814 8.56201686094788 6.320193467276297 0 1 0
302 5 11.200029664412106 3.07939731115076 6.304335347508948 0 1 0
220 3 9.655615073741192 2.542877178941552 2.9347043508091546 0 -1 0
219 2 9.622908989456798 2.615215668488561 -0.14912904658625223 0 -1 0
218 1 7.799394510407139 3.0108894386946736 1.4054789377843573 0 -1 0
248 2 12.76761644747513 3.3004194621120315 -0.08869775927207968 0 -1 0
249 3 12.693958947594632 3.2563428731612936 3.0000389923606385 0 -1 0
337 4 7.516015619542345 9.045245484675787 8.009809699152635 0 1 0
298 4 11.75510107602081 1.2452253652057386 7.976371547066282 0 2 0
367 4 10.663773945799614 10.007240509634045 7.93949678299008 0 1 0
335 5 11.74652216956116 6.245196474427623 6.325988701128281 0 1 0
336 6 11.777951891288705 6.247338668979773 9.628240957353915 0 1 0
331 4 12.400841345219371 4.435356393203065 7.968057486790061 0 1 0
368 5 12.500752581934298 9.475666992193677 6.282468772683361 0 1 0
369 6 12.518884205237496 9.544885037341185 9.559783426249641 0 1 0
244 1 13.070375667312025 1.5514892847292563 1.3384966987568487 0 -1 0
215 1 9.985546794948846 0.8272473314768202 1.3597188666432751 0 -1 0
4 2 13.782141630470205 6.239223824095021 -0.14146274304173528 -1 -1 0
5 3 13.676975856344002 6.222985200999478 3.019398399512696 -1 -1 0
364 4 13.083804018330373 7.664730751896902 7.971470112590626 0 1 0
275 1 14.16164008488377 4.511271577915909 1.4519219974322959 0 -1 0
26 1 15.092506377667354 7.4492854950032195 1.4923691228061757 -1 -1 0
30 3 14.667551339584 9.129890945420502 3.08446053026698 -1 -1 0
29 2 14.838550926688361 9.263272365923696 0.017574875207204233 -1 -1 0
2 3 15.794359529348267 3.9297013400394385 2.948703078394789 -1 -1 0
86 1 16.093334874550703 10.409987839382838 1.6082724537314081 -1 -2 0
1 2 15.84595963117621 3.9707948326878584 -0.08907904438193352 -1 -1 0
28 3 16.855647425541854 6.794504209515848 3.088541755970788 -1 -1 0
27 2 16.90291633319958 6.875494721938282 0.01680969118279217 -1 -1 0
87 2 17.849711032088216 9.888392712639313 0.06673675613888452 -1 -2 0
88 3 17.77629452765862 9.876555594221783 3.161786120431637 -1 -2 0
55 1 18.228514133911535 8.13380888919951 1.626795039776717 -1 -1 0
116 1 19.181118152780634 11.159454163343963 1.6286407379485628 -1 -2 0
52 1 20.288592447377994 5.795064932793119 1.597858829467134 -1 -1 0
57 3 19.930255172470652 7.50354810338065 3.2255776329285 -1 -1 0
56 2 19.92109057297624 7.634011574590617 0.10957130309169333 -1 -1 0
117 2 20.910414884321792 10.541410550871092 0.04927763953754995 -1 -2 0
83 1 21.224516114212804 8.823831436056881 1.6612497857496653 -1 -1 0
118 3 20.936255881061 10.569998914286337 3.1684316917935598 -1 -2 0
299 5 13.585072666447045 0.7802586642863443 6.350671626347053 0 2 0
333 6 14.335062278387037 3.988846258900196 9.55004437181026 0 1 0
332 5 14.226074338447393 4.012902406977478 6.288163358730143 0 1 0
328 4 14.915755619456483 2.181056425909511 8.019950690268887 0 1 0
300 6 13.618242462066204 0.8115133416179016 9.63809631880772 0 2 0
361 4 15.559873577302612 5.405047657815258 7.889638158628455 0 1 0
329 5 16.72566950899383 1.6998856047176438 6.339899237032188 0 1 0
330 6 16.679278152709045 1.7695003539239318 9.697672074896058 0 1 0
363 6 17.455958617058254 5.0690705879259035 9.5737777292836 0 1 0
362 5 17.443995148165577 4.949027891694534 6.197889824911026 0 1 0
358 4 17.972447031178177 3.172211916904339 7.968655759277672 0 1 0
325 4 -10.22638810074741 21.44599675655875 8.04452655380283 0 1 0
391 4 18.595131255392417 6.422789526681714 7.827703323779999 0 1 0
23 1 17.156455922423195 5.096581615112945 1.4728453669793888 -1 -1 0
365 5 14.843955824266065 7.227827165604468 6.2655376563717375 0 1 0
366 6 14.960638712423227 7.143681486751997 9.603651035426148 0 1 0
24 2 18.997579657943394 4.6218873014717365 -0.001482033162083002 -1 -1 0
25 3 18.858352649463388 4.548770306780025 3.0727056647470796 -1 -1 0
396 6 18.09219120374534 8.298039021867684 9.569258046387288 0 1 0
395 5 17.99990635132925 8.255723192756221 6.122384529486476 0 1 0
272 1 16.185843447246576 2.158098062040549 1.4076728076272274 0 -1 0
20 1 19.317326928398177 2.8235161563721776 1.4784298897148669 -1 -1 0
21 2 21.07637314224246 2.3654975657052337 -0.008501346110534058 -1 -1 0
22 3 20.943119154456827 2.3128655947983927 3.1324406527182216 -1 -1 0
394 4 16.224529591718106 8.708095463646378 7.848135926150667 0 1 0
359 5 19.70872070785271 2.691557413278079 6.269220827239508 0 1 0
360 6 19.74078306302233 2.6947787107126753 9.618327946911451 0 1 0
273 2 17.956109117728136 1.7776725637343402 -0.15167005462777694 0 -1 0
274 3 17.88148655838399 1.6314310375791368 3.0381327665258007 0 -1 0
424 4 19.315600888286227 9.602589755554055 7.8464319547842525 0 1 0
392 5 20.477220947313697 5.854105402057757 6.295195849129983 0 1 0
355 4 20.36594246114729 0.9037551988776327 7.960194398188994 0 2 0
393 6 20.420554584321316 5.884945427393733 9.538922921127975 0 1 0
388 4 20.979336158358734 4.118354024454239 7.919967585266347 0 1 0
425 5 21.19559050516667 9.102719486780398 6.208004383114005 0 1 0
426 6 21.088899343454738 9.128933768791534 9.494290990417904 0 1 0
245 2 14.786385904669695 1.071193110396517 -0.23461152356482326 0 -1 0
214 3 14.824745621830685 0.9040297119137208 2.921007616219716 0 -1 0
246 3 14.749177134230008 0.9439730016544413 2.897745509219465 0 -1 0
449 5 29.157209219834318 5.710576651278873 6.379033206465438 0 1 0
450 6 29.092077637590616 5.643591119309587 9.656393878455411 0 1 0
54 3 21.965876149266112 5.262018016729968 3.135703123721272 -1 -1 0
53 2 21.994598414640002 5.336745416002451 0.05498708867585696 -1 -1 0
49 1 22.39785888537354 3.5436023567667485 1.5951688654612723 -1 -1 0
84 2 22.956930712087956 8.355373717872835 -0.01648846516352965 -1 -1 0
85 3 22.996514881064225 8.285848101825628 3.1813680306799457 -1 -1 0
451 4 24.838759228073485 8.346035214191764 8.049327293781946 0 1 0
448 4 27.266399413711586 6.135387917963705 8.069638651293577 0 1 0
80 1 23.35672116627764 6.490864630412443 1.5475691201552209 -1 -1 0
422 5 23.673008767598223 6.909692957207084 6.325479733793815 0 1 0
423 6 23.596648656777592 6.864506575003562 9.644648217804674 0 1 0
420 6 25.994773876193864 4.67925657640648 9.726852135506537 0 1 0
419 5 26.07452469087949 4.701128533010119 6.369277449100642 0 1 0
418 4 24.192701365278214 5.085338298775052 8.017611051038676 0 1 0
113 1 24.332630945142917 9.482995960213598 1.5959697493268106 -1 -1 0
415 4 26.686211945103082 2.812100625914764 8.036139296224244 0 1 0
82 3 25.204333898944192 5.947199817953891 3.0869228990680244 -1 -1 0
81 2 25.036792872247798 5.9407391332322455 0.05345764193536534 -1 -1 0
114 2 26.068322707350937 8.896495643071216 0.01840509803821848 -1 -1 0
115 3 -11.440194946177305 8.963983792818073 3.1003729168287633 0 -1 0
110 1 26.439250030913584 7.157540229329977 1.5580787644022955 -1 -1 0
111 2 28.14735923049782 6.472626402682206 -0.062448031300425894 -1 -1 0
112 3 28.166133982047278 6.641028575874144 3.13423595547652 -1 -1 0
389 5 22.84002343196619 3.673660540050351 6.374866356993025 0 1 0
390 6 22.79427791768429 3.7080918347585694 9.63911981692244 0 1 0
356 5 22.23982190993734 0.3864753979496892 6.311201575821255 0 2 0
357 6 22.26431451836249 0.4529101792172888 9.708896092746953 0 2 0
387 4 23.470531800075324 1.84581098236906 7.987102868512189 0 1 0
385 5 25.350456814587687 1.4891478523613653 6.338034315017943 0 2 0
386 6 25.310888230312997 1.510127332067208 9.637946898217798 0 2 0
382 4 -1.534078692665775 21.188942365420882 7.981451317872533 0 1 0
77 1 25.566498975665965 4.12699547939589 1.5615272747015196 -1 -1 0
78 2 27.274530677247 3.627293485552825 -0.007912103017181517 -1 -1 0
107 1 28.59274060677869 4.765058304876495 1.6414772166077725 -1 -1 0
421 4 21.687679537362328 7.322815530884259 7.925816565417371 0 1 0
79 3 27.187693844511525 3.492904190461329 3.2260882888258067 -1 -1 0
51 3 24.200718984007864 2.8645252453016146 3.095050511573024 -1 -1 0
50 2 24.1388651627538 3.010293874513107 0.0062481048821391135 -1 -1 0
74 1 27.581653355903388 1.7900121294907168 1.5909463654238294 -1 -1 0
46 1 24.514510674346017 1.1735955512883642 1.483994151830273 -1 -1 0
75 2 29.383092677113964 1.2192813899759902 -0.015436549539650212 -1 -1 0
416 5 28.407344923823562 2.3697969111533648 6.4440751875045965 0 1 0
417 6 28.410370392810602 2.4502788456784255 9.741187716731595 0 1 0
144 2 -13.59048946049431 11.26743386261742 -0.11227900312428019 0 -2 0
412 4 29.01858240075325 0.5954408973155136 8.152453941095851 0 2 0
76 3 29.29338713781969 1.2477345722600035 3.1790406359373944 -1 -1 0
47 2 26.32313582717758 0.5728826717379948 0.04897720278163791 -1 -1 0
48 3 26.212673055277204 0.4968749225804171 3.0904243520271053 -1 -1 0
447 6 31.597253901570394 3.472283386418291 9.671090149415274 0 1 0
446 5 31.52030930594337 3.394961220139985 6.416267278408291 0 1 0
108 2 30.312890752604364 4.246064644450264 0.04593010120873375 -1 -1 0
109 3 30.35444495521096 4.318701007830583 3.2058793099551597 -1 -1 0
104 1 30.667951952705884 2.454795614170999 1.667134800039637 -1 -1 0
445 4 29.67214301697676 3.7923575417780238 8.06434781546147 0 1 0
442 5 33.92912397329596 1.2621622535465804 6.436676762617903 0 2 0
443 6 34.030708965520446 1.2332098419934252 9.672201378273744 0 2 0
444 4 32.168803345496826 1.5927629075123868 8.109512008706753 0 1 0
414 6 30.887793214368095 0.1855735799236277 9.811384909947543 0 2 0
413 5 30.88095143646941 0.15204176321590462 6.504501734622577 0 2 0
134 1 -3.8068811936795193 3.259749860147928 1.535136620772746 0 -1 0
106 3 32.40565863222502 1.9410940429018224 3.1352896718889784 -1 -1 0
105 2 32.43352518549561 2.016469604372747 0.04709404672993133 -1 -1 0
131 1 35.90103438154742 0.9023137110912368 1.4747856758547133 -1 -1 0
496 4 -21.811729940262033 20.720301433581962 7.893326145899395 1 1 0
466 4 -24.880371116227884 19.7302168405852 7.954253700634715 1 1 0
468 6 -22.98911621171273 19.27587110842828 9.58290114852222 1 1 0
467 5 -23.021320514219408 19.218408260566534 6.258615195963084 1 1 0
185 1 6.759959589391079 0.12830936161483963 1.3510821244829143 0 -1 0
155 1 -23.884985605432153 21.00864055812669 1.479666700653907 0 -2 0
156 2 -22.157313140595132 20.428800036083302 -0.17495238595603424 0 -2 0
157 3 -22.09893108808715 20.487480116584788 2.96758226046908 0 -2 0
153 2 -19.97920365469525 18.107769469319454 -0.023828831573861106 0 -2 0
154 3 -19.871813597265778 18.20494376643886 3.059824675202464 0 -2 0
464 5 -20.659354659741997 17.03526777512275 6.207523005701744 1 1 0
465 6 -20.713258108532905 16.87464609072576 9.608725008811744 1 1 0
497 5 -19.892958828033997 20.19363827804407 6.252417260231017 1 1 0
498 6 -19.861289403911098 20.184266661966483 9.575535654747009 1 1 0
152 1 -21.74963375758987 18.724932342909423 1.478581373248324 0 -2 0
463 4 15.087900250625342 17.447442358400732 7.896229104332231 0 1 0
132 2 0.08499986690692533 0.37332854740743643 -0.14443448811645662 0 -1 0
149 1 -19.598222252180335 16.434637041811 1.526882965170693 0 -2 0
527 5 -16.906727156214366 21.242209665307865 6.328422159965661 1 1 0
187 3 -18.905965677458724 21.257524404791145 2.9561853349196903 0 -2 0
493 4 -19.382854828834272 18.37438745446059 7.874900180951926 1 1 0
186 2 -18.958767277383146 21.105592301746682 -0.1551027654672988 0 -2 0
182 1 -18.521179099929185 19.443958171506523 1.4493391873308128 0 -2 0
295 4 -13.308924385154523 20.420656759107864 8.001429202945017 0 1 0
173 1 -12.155633268758839 12.46087431383264 1.4089989495507422 0 -2 0
523 4 -16.358899628707086 19.38595172429008 8.011395466336406 1 1 0
177 2 -12.700797280264187 14.202617545802454 -0.14644345170021297 0 -2 0
178 3 -12.440800165192005 14.34807732681315 2.9341341605964373 0 -2 0
525 6 -14.501117247039279 18.924837985254218 9.660870395739867 1 1 0
524 5 -14.515167051289527 18.97396197949594 6.352676405129563 1 1 0
495 6 -17.62432206310564 17.901538995852388 9.702462137497504 1 1 0
494 5 -17.475455160625813 17.91473935984986 6.22070084997043 1 1 0
216 2 11.759226661531889 0.3372278056833295 -0.33829739688180116 0 -1 0
217 3 11.715773722104508 0.4259187950823393 2.9160225853159516 0 -1 0
241 1 -12.276773879690344 20.796767818601605 1.3216845218106446 0 -2 0
462 6 -18.270965528301826 14.698186405078498 9.58546375909497 1 1 0
461 5 -18.177777343899937 14.627013438448342 6.2934789313662804 1 1 0
490 4 -16.97062856567892 16.09983361135862 7.926934510280119 1 1 0
458 5 -15.70268916849456 12.33650135704477 6.330863499102031 1 1 0
459 6 21.720970672967113 12.341669289953733 9.655271224141016 0 1 0
491 5 -15.098186036943764 15.535290077351403 6.361479720485784 1 1 0
492 6 -15.18124420103741 15.690931178773914 9.64894825302141 1 1 0
213 2 -13.742748941015721 19.52385500010683 -0.1923798132315391 0 -2 0
487 4 -14.586841961134326 13.825897472214221 8.034620467489185 1 1 0
520 4 -14.025610655854333 17.124729922614595 8.035559931645038 1 1 0
210 2 -11.538847589831283 17.134014237212842 -0.2651666172556834 0 -2 0
212 1 -15.403020102263394 20.163929693592152 1.344078679992954 0 -2 0
209 1 -13.274672853424049 17.760091810476148 1.352090536846945 0 -2 0
211 3 -11.47986851693425 17.20661900176715 2.823507831615987 0 -2 0
184 3 -16.740630021077965 18.970495470743728 2.967700569848702 0 -2 0
183 2 -16.889358498486132 18.8722732447862 -0.11005029223072793 0 -2 0
179 1 -16.41560691103688 17.152445453293122 1.4621678915034113 0 -2 0
180 2 -14.777996368516174 16.531102667005417 -0.11941065257733649 0 -2 0
181 3 -14.609454727166533 16.639363812399825 2.969536204259977 0 -2 0
489 6 -12.727723865216296 13.406295375808579 9.754574559325269 1 1 0
488 5 -12.769834655662684 13.37789946324016 6.4322503383744944 1 1 0
176 1 -14.352933267201418 14.785859979821662 1.5107364391769775 0 -2 0
484 4 -12.012876857280327 11.62558458479813 8.087836721746266 1 1 0
521 5 -12.168767101736625 16.700980104024534 6.383558821545423 1 1 0
522 6 -12.16585238487472 16.699705202061768 9.723194749441868 1 1 0
150 2 -17.876050453183115 15.955677052311438 0.01832652285451842 0 -2 0
151 3 -17.822509714528415 15.9735145903331 3.0545113409493614 0 -2 0
206 1 -11.152643111675632 15.433837292390466 1.2995189112248315 0 -2 0
517 4 -11.542521416288437 14.876752618064565 8.047555943549057 1 1 0
297 6 -11.5104277254892 20.050097877445072 9.663875976773996 0 1 0
148 3 -15.632466855950675 13.664943714138005 3.1727737146162185 0 -2 0
147 2 -15.735222618941307 13.590562231389493 0.02256970897248866 0 -2 0
326 5 -8.350059431075564 20.98063866820593 6.349859630396988 0 1 0
327 6 -8.309110768560235 21.11241792105621 9.702370102497483 0 1 0
296 5 -11.499212228993496 20.049441324565336 6.345382429621131 0 1 0
175 3 -10.43214601402322 11.923910730039958 2.9577075048247488 0 -2 0
243 3 -10.521942852382054 20.22249599766664 2.8984134523737874 0 -2 0
174 2 -10.410084644282176 11.822103328426682 -0.18483102101462384 0 -2 0
242 2 -10.57590609548194 20.251144521782994 -0.24414086779886918 0 -2 0
238 1 -10.136793304700186 18.43686628968309 1.3127883181867344 0 -2 0
511 4 -6.606323634635652 10.406918814084195 8.024922374534402 1 1 0
17 1 21.40571299920982 0.5200499528791851 1.560212995183508 -1 -1 0
207 2 -9.424101513717213 14.89970078905597 -0.28437387176540085 0 -2 0
208 3 -9.41498216880461 14.903228402563492 2.8090691250670474 0 -2 0
269 1 -9.153344206339836 21.40292492909281 1.3539015435119164 0 -2 0
203 1 -9.08776518267004 13.167088061156267 1.254658607774526 0 -2 0
233 2 -4.167104837668824 13.307053775133358 -0.3387293868675165 0 -2 0
234 3 -4.268216344032211 13.392437235359711 2.761643742143363 0 -2 0
232 1 -5.964605209525066 13.873171004009489 1.2225766677084857 0 -2 0
204 2 -7.297714327686102 12.681933464976652 -0.28756265559420474 0 -2 0
205 3 -7.344160791072134 12.69488941243302 2.9080092612165127 0 -2 0
352 4 -4.678321492300166 20.139918197830564 8.056924975980449 0 1 0
322 4 -7.76996833001023 19.20611830178376 8.120726134552974 0 1 0
239 2 -8.375438257872977 17.979744683450445 -0.28648685250812583 0 -2 0
240 3 -8.387638624057766 17.824186735758943 2.92353368556717 0 -2 0
236 2 -6.217656913072772 15.651907310581716 -0.2217683923888068 0 -2 0
237 3 -6.261013170332091 15.602610972570929 2.775240245579916 0 -2 0
292 4 -10.849680919720438 18.273691202113113 8.050881567153656 0 1 0
323 5 -5.897253867121535 18.702634980141 6.468917694930537 0 1 0
324 6 -5.911283631397672 18.744875052228757 9.721268894589224 0 1 0
235 1 -8.00775351266151 16.17066870714244 1.2728962524362524 0 -2 0
294 6 -9.003069928147074 17.72454059725984 9.74207744465785 0 1 0
271 3 -7.460141797934652 20.71596239147417 2.988459232508816 0 -2 0
270 2 -7.301429782354943 20.88311746126417 -0.13915528380601766 0 -2 0
266 1 -6.976538793922243 19.024323530438227 1.3739585105942909 0 -2 0
267 2 -5.2492086196296475 18.557299383360156 -0.17514167977401135 0 -2 0
18 2 -4.360730622305349 21.503591057272487 -0.15970727230295578 -1 -2 0
19 3 -4.365324950893253 21.52253460174035 3.065635403602785 -1 -2 0
14 1 -3.887565437181724 19.78685138416904 1.4223201301344233 -1 -2 0
268 3 -5.160304616291478 18.586447794495882 2.9401563888801854 0 -2 0
263 1 -4.863273265348794 16.844322960292686 1.3563472198441242 0 -2 0
265 3 -3.146403567362883 16.23038603816639 2.8413539078644687 0 -2 0
485 5 -10.325634865555667 11.133679479394452 6.3537584072403215 1 1 0
486 6 -10.22866607383542 11.164762297187314 9.687000195894953 1 1 0
519 6 -9.60403787800855 14.434339353336012 9.65376929064379 1 1 0
518 5 -9.741112646682355 14.404014084934188 6.32356059438771 1 1 0
514 4 -9.035820647950349 12.570179052991678 8.002355468890423 1 1 0
293 5 -8.944851798177536 17.76613950510787 6.441669168796312 0 1 0
516 6 -7.208670494868575 12.142606441677481 9.731258967415586 1 1 0
289 4 -8.472154615154457 15.838042886972282 8.06409973509936 1 1 0
515 5 -7.210922840646041 12.196597401001037 6.366042799037151 1 1 0
291 6 -6.6478944731454 15.403272757844334 9.74038093106369 0 1 0
290 5 -6.629873860204301 15.450575147522626 6.468755313805626 0 1 0
540 4 -5.967882491582498 13.60157151561557 8.075055778710697 1 1 0
319 4 -5.338270888495501 16.9049078256014 8.11765311743821 0 1 0
288 6 -4.06926621503203 13.245366411284008 9.68247517385121 0 1 0
287 5 -4.072895895006817 13.22609000182992 6.433574879150733 0 1 0
539 4 -3.398324607579442 11.446916355711355 8.039524607178532 1 1 0
264 2 -3.138805731872521 16.288827549622315 -0.22956792683528943 0 -2 0
321 6 -3.4938679861250526 16.522240433514934 9.737731510019623 0 1 0
320 5 -3.5239277498057984 16.423074285594264 6.408400588567201 0 1 0
258 2 1.1384770322501643 11.591961220990393 -0.3250479516598983 0 -2 0
259 3 1.0051558770418179 11.559803448842752 2.7479783458272053 0 -2 0
260 1 -2.8090222105052045 14.53546535601767 1.2345803607927004 0 -2 0
384 6 0.2771962806662036 20.7171087780484 9.748111067287448 0 1 0
15 2 -2.107395480605553 19.300953776885084 -0.1538509508533705 -1 -2 0
16 3 -2.1877747939192176 19.13585831521211 3.080763514602785 -1 -2 0
261 2 -1.0791370501152933 13.919281596208632 -0.27260010369614807 0 -2 0
262 3 -1.0423948507639669 13.863606971027375 2.8034907693484765 0 -2 0
11 1 -1.7722609296855096 17.443479871561216 1.3324979800340393 -1 -2 0
257 1 -0.6425981218177673 12.127641029089578 1.215045373725445 0 -2 0
280 2 4.267681805143418 12.184718472609081 -0.292719821402202 0 -2 0
281 3 4.037560197924335 12.364867565744024 2.8197543853921574 0 -2 0
383 5 0.2639100116320193 20.77617839329123 6.481774190690208 0 1 0
279 1 2.402504099458815 12.735933064633217 1.268989048246826 0 -2 0
354 6 -2.819977888435019 19.765925247427294 9.665187167771686 0 1 0
353 5 -2.808912865128342 19.6967637102343 6.328251676098591 0 1 0
43 1 -0.8178511015823642 20.324796485252868 1.5204823698102778 -1 -2 0
282 1 0.32246403833833226 15.07667371212559 1.2593679359687966 0 -2 0
10 3 2.0381542031359103 14.527341730359705 2.769294352686263 -1 -2 0
9 2 2.098849084466984 14.559185455750152 -0.2925902650310468 -1 -2 0
37 1 3.40550949824568 15.764775963198646 1.2957309413889218 -1 -2 0
379 4 0.8811048054477572 18.931808000921038 8.082972290933524 0 1 0
380 5 2.6709503767613145 18.5913564523443 6.443838543057519 0 1 0
381 6 2.7621099551902843 18.42421040910222 9.79308730434559 0 1 0
349 4 -2.2630972713192516 17.91908463050481 8.010338022629005 0 1 0
12 2 -0.08545441241104149 16.868009625311856 -0.18819670531441376 -1 -2 0
13 3 -0.01505887280919591 16.765444685376448 2.8809398911196213 -1 -2 0
45 3 0.9304501932868849 19.731629520460455 3.0411833612682737 -1 -2 0
44 2 0.9362775416046367 19.823049534057937 -0.03596162641757876 -1 -2 0
40 1 1.2869517286958703 18.024547646826548 1.3693202673778027 -1 -2 0
71 1 2.237892832073692 20.99893508896424 1.5998742943229853 -1 -2 0
73 3 4.01521607538708 20.344350371265698 3.0561827538430895 -1 -2 0
72 2 3.9752408737812717 20.52886246705561 -0.022391601643183223 -1 -2 0
68 1 4.395473587818246 18.625140026053153 1.3810640245071883 -1 -2 0
41 2 3.0634464912333605 17.49382006092027 -0.31906624072077966 -1 -2 0
42 3 3.049565341370701 17.47308312897374 2.877005714166718 -1 -2 0