LAMMPS data file via write_data, version 27 Jun 2024, timestep = 40000, units = metal

540 atoms
6 atom types

0 37.59365801343109 xlo xhi
0 21.52779524830364 ylo yhi
-0.4958213193751104 9.923350668168576 zlo zhi
-27.49615054720427 0 0 xy xz yz

Masses

1 95.95
2 32.06
3 32.06
4 95.95
5 78.971
6 78.971

Atoms # atomic

437 5 -13.218552814968264 12.331657319399115 6.289523437681547 1 1 0
438 6 -13.308440992525213 12.322755979661451 9.598615972125117 1 1 0
464 5 -7.714179132070048 11.145229622044157 6.433228038668484 1 1 0
465 6 -7.755015031353487 11.247956160749704 9.717519746945685 1 1 0
463 4 -9.558508384830303 11.66639895160943 8.082153751146704 1 1 0
460 4 -7.167703648773265 9.31520875710795 8.056725196511296 1 1 0
206 1 -2.432200931825873 2.4549934477158684 1.4023272466472716 0 -1 0
494 5 -4.562571640846853 12.057757315161007 6.384332913649308 1 1 0
495 6 -4.53355913695876 12.046164981204157 9.67088346320994 1 1 0
462 6 -5.159349354128726 8.75569202422704 9.554356476417249 1 1 0
461 5 -5.323701243584636 8.867151569463235 6.338908523139332 1 1 0
457 4 -4.713751241071565 6.941055554345744 7.899216209063251 1 1 0
184 3 29.430672969510347 6.000657181794967 3.1041384046022222 -1 -1 0
180 2 31.633798169164685 3.641345261478869 0.005770811041087761 -1 -1 0
181 3 31.82135954889555 3.6454421118909766 3.0722940802273535 -1 -1 0
211 3 -2.878462824036106 4.3031770827723745 2.8443185413546823 0 -1 0
210 2 -2.846146575335239 4.360168549417351 -0.22669069301408998 0 -1 0
209 1 -4.566963106053748 4.9309649785053855 1.415353308642937 0 -1 0
490 4 -4.034089211649132 10.16359097305545 7.98106343225865 1 1 0
435 6 -10.745780675690792 10.084473994899742 9.69759749373118 1 1 0
434 5 -10.690296324923391 10.29112312397938 6.428279920594491 1 1 0
432 6 -8.39156960117964 7.911865003751312 9.72172348762981 1 1 0
431 5 -8.38837890353375 7.8644940238934655 6.418200166618456 1 1 0
186 2 27.229111531906216 7.878265814723236 -0.11550510574243883 -1 -1 0
187 3 27.180597993482024 7.915497516340283 3.0677407870676974 -1 -1 0
182 1 27.652402832003247 6.216928503345286 1.5533696123789522 -1 -1 0
183 2 29.35561248517183 5.79549014725486 0.023328969237436693 -1 -1 0
212 1 -6.780616412116752 7.085811015996376 1.4662179286022505 0 -1 0
213 2 -5.236869297937749 6.543834091000787 -0.1265777207581941 0 -1 0
241 1 -3.5900543243545546 7.586772718451533 1.5405375037779054 0 -1 0
238 1 -1.5108549771483575 5.472205750567267 1.3048918599669956 0 -1 0
203 1 37.30294010269977 0.18085058624225323 1.3604404319138792 -1 -1 0
235 1 0.6250735086400302 3.2681622305509643 1.3964833507235055 0 -1 0
207 2 -0.7658341742960633 1.9490242605575034 -0.15296693840441086 0 -1 0
208 3 -0.5574604041442318 1.91422006282485 2.987491557153399 0 -1 0
200 1 11.815551124253329 19.38539429342503 1.2484259270113125 -1 -2 0
204 2 -26.132496119878226 21.11037016779487 -0.3778453457307169 0 -2 0
205 3 -26.00568568844403 21.12310803045506 2.7923362401985 0 -2 0
520 4 -1.0631232663807735 11.26645786378617 7.900481995211059 1 1 0
491 5 -2.215609746648078 9.781507651585112 6.340786969900025 1 1 0
492 6 -2.1785947770352654 9.798064024407244 9.644620746100173 1 1 0
521 5 0.7580494912575272 10.797458009062462 6.158064774382452 1 1 0
522 6 0.817082174991233 10.753564598579551 9.51633050221864 1 1 0
487 4 -1.5620111747592005 8.006770302594628 7.927954639239813 1 1 0
229 1 -22.836105197595465 20.199419773096693 1.2007449867983924 0 -2 0
517 4 1.351808354553652 8.96068682100303 7.924141788336056 1 1 0
489 6 0.13509313817732138 7.383339602642927 9.659144539541002 1 1 0
488 5 0.27488598683994625 7.315572371875463 6.330262543230436 1 1 0
232 1 2.6495939276833096 0.9148659666275996 1.1094850182827134 0 -1 0
233 2 4.45306284195875 0.39270886940701183 -0.4548334180983117 0 -1 0
234 3 4.388642709999082 0.4079806780519926 2.7025970380483386 0 -1 0
292 4 2.177821394473176 12.257137613841214 7.907724515225956 0 1 0
484 4 0.8097308393435498 5.539059438504566 8.015356871089056 1 1 0
458 5 -2.8073085635711807 6.543798819660696 6.239748965042426 1 1 0
459 6 -2.8533885072375527 6.695362387628345 9.776453896200557 1 1 0
236 2 2.224736119752951 2.7232038658771622 -0.3094706832743423 0 -1 0
237 3 2.3746814908766503 2.6435193382519233 2.667341509937783 0 -1 0
260 1 5.952917841970193 1.6278416520650043 1.1528894847917825 0 -1 0
264 2 5.467556481095622 3.404438363257193 -0.4142352899414882 0 -1 0
265 3 5.415120172730999 3.3951719892171743 2.7297186567053973 0 -1 0
519 6 3.2910135586368123 8.639877259331795 9.622745941440439 1 1 0
518 5 3.2027031679857294 8.541109433074983 6.288012162587877 1 1 0
485 5 2.738719037124909 5.281616721537493 6.322751356763787 1 1 0
486 6 2.6121513971323873 5.274137541727132 9.746314313825847 1 1 0
481 4 3.1871052157913633 3.538882921255838 8.049192608287312 1 1 0
456 6 -0.46994664874466596 4.236123357738061 9.658894798788678 1 1 0
454 4 -2.351405671296358 4.674282506730102 8.078001736725199 1 1 0
455 5 -0.5630661404330165 4.347212333446808 6.414152383001319 1 1 0
239 2 0.19253487659265162 4.990428653179184 -0.34341121361660093 0 -1 0
240 3 0.37847287163819393 5.072101483262897 2.8551516277264155 0 -1 0
267 2 3.315701504324796 5.655778287960649 -0.4858213193751104 0 -1 0
263 1 3.7777443268737225 3.8995789505055494 1.169942395482421 0 -1 0
293 5 3.991504767913085 11.776911899635033 6.262343424121109 0 1 0
294 6 4.075037685636643 11.81441197260273 9.533894289557828 0 1 0
514 4 3.8869626711448615 6.775599217721458 7.977366228444682 1 1 0
452 5 1.958908479176761 1.991988797490068 6.3812868298814776 1 1 0
453 6 1.8961629003153877 2.054080635329665 9.602873117594351 1 1 0
451 4 0.108664667878255 2.4843500063273654 8.062611251268933 1 1 0
242 2 -1.9191863426005558 7.44902824095098 -0.12927322989715087 0 -1 0
243 3 -1.8121242407857108 7.165189799005832 3.1000095810552573 0 -1 0
271 3 1.1690847870902263 7.896627378825473 2.9880620345952362 0 -1 0
270 2 1.19252599554474 8.113390444123597 -0.17894550277124854 0 -1 0
266 1 1.662512892545571 6.199404308537081 1.1742939503195438 0 -1 0
268 3 3.3765528547787773 5.568432982195578 2.7329678089991085 0 -1 0
14 1 4.703616363949093 6.863842614884823 1.1973429193191005 -1 -1 0
230 2 -21.009192586315002 19.731267693572548 -0.3237372480816235 0 -2 0
231 3 -21.007812031597904 19.698004288364366 2.8532043949789156 0 -2 0
11 1 6.897725614938786 4.4937546298897875 1.123222398999337 -1 -1 0
257 1 -19.47190224595249 20.684806305723193 1.236934661754916 0 -2 0
261 2 7.733287434996251 0.9765325008077287 -0.38472580085150715 0 -1 0
262 3 7.627330931468543 1.1456824077544596 2.722724842099552 0 -1 0
282 1 8.950098292067377 2.2125234534580804 1.132525333333592 0 -1 0
258 2 -17.70242699461996 20.01517620120329 -0.2943837074563107 0 -2 0
259 3 -17.91785059833619 20.252536355442867 2.775531412798509 0 -2 0
289 4 4.596797237711927 10.048911340712142 7.905804190146656 1 1 0
319 4 7.664927250575793 10.980812077757244 7.864592140142401 0 1 0
291 6 6.387634007700367 9.536154049711831 9.600586626089266 0 1 0
290 5 6.4118761928362416 9.574532975247353 6.227899801729519 0 1 0
320 5 9.561754062379071 10.682338979275949 6.2307262389920135 0 1 0
321 6 9.483469839574099 10.579276364459984 9.538345221614833 0 1 0
540 4 7.007439057777774 7.747458368953946 7.933934177170129 1 1 0
288 6 8.738583184376141 7.413452814856258 9.55198427969939 0 1 0
287 5 8.874987004611016 7.27460202121501 6.2188942424289975 0 1 0
279 1 -16.408716581230248 21.43618275383399 1.190523361708294 0 -2 0
280 2 -14.571057512798578 20.92095618738825 -0.2707017622221965 0 -2 0
281 3 -14.757439823818233 20.8311192030807 2.8181887058843524 0 -2 0
316 4 10.067123647725845 8.66453105877707 7.863655956217068 0 1 0
515 5 5.722025892765459 6.347121631794689 6.251449335576653 1 1 0
516 6 5.731237763526969 6.518856507401697 9.636851659718824 1 1 0
539 4 9.511152862464403 5.57090308341063 7.98123535684928 1 1 0
9 2 10.778585180629577 1.7990965017317253 -0.29684828139471237 -1 -1 0
10 3 10.815013972976873 1.6567108471034762 2.860152426585367 -1 -1 0
38 2 13.97949638725599 2.2878740725458386 -0.20533030682340403 -1 -1 0
39 3 13.901866416064163 2.361600110913046 2.863834358090847 -1 -1 0
37 1 12.217358951460499 2.901625856558273 1.3389031620022198 -1 -1 0
349 4 10.79237703532438 12.030878430415846 7.794615522631705 0 1 0
285 5 11.200933725911742 4.976683747216711 6.187604889647785 0 1 0
511 4 6.392451126118033 4.574439125292163 7.896526589626687 1 1 0
512 5 8.190961005761846 4.1203219232244335 6.328487376740678 1 1 0
513 6 8.152904552667207 4.2867520526016625 9.676543426856135 1 1 0
286 6 11.34167568315289 5.180921842995508 9.589374544014982 0 1 0
12 2 8.619244859443164 4.130026865433434 -0.39891422893729556 -1 -1 0
13 3 8.734960288811275 4.050806562649409 2.793970804378803 -1 -1 0
40 1 9.996408661342047 5.28082926499328 1.2445538184349478 -1 -1 0
41 2 11.699811702573387 4.804330297741968 -0.32976050674496854 -1 -1 0
42 3 11.682936266642262 4.687897277276576 2.8865588597953886 -1 -1 0
317 5 11.83175736050098 8.269767109735636 6.032507556097445 0 1 0
318 6 11.963334040453924 8.420755551833828 9.500542977189962 0 1 0
313 4 12.558935316231272 6.533401368383706 7.752216176908445 0 1 0
483 6 5.0190100291161786 3.276233128394902 9.6752201256466 1 1 0
482 5 5.119460154540178 3.2765994688560167 6.314517956261129 1 1 0
508 4 8.771466031058946 2.3708316849125204 7.958883426313949 1 1 0
509 5 10.598984188452455 1.7714640367380539 6.372960857372219 1 1 0
510 6 10.55838366372353 1.8878380826713783 9.70341363848461 1 1 0
538 4 11.695061792000606 3.238775016381112 7.998515912316582 1 1 0
15 2 6.519020427014771 6.3202389594616015 -0.4098950786401076 -1 -1 0
16 3 6.4428707448655995 6.408368004119798 2.7542317587217795 -1 -1 0
43 1 7.9414254122625145 7.530525502433147 1.3117288324278331 -1 -1 0
44 2 9.695434338259092 6.962741672488176 -0.2503585659836256 -1 -1 0
45 3 9.637386278261184 6.908715030551825 2.7888657823721466 -1 -1 0
71 1 11.090563926772393 8.268713595965357 1.3941878915596324 -1 -1 0
73 3 12.758211069512326 7.568695591272345 2.9003188577276666 -1 -1 0
72 2 12.827089232395473 7.675934554322982 -0.09658597970280303 -1 -1 0
68 1 13.140623277749768 5.843702856086589 1.3812573743198453 -1 -1 0
34 1 14.278790509192406 0.4748678019678844 1.3001849249479571 -1 -1 0
69 2 14.891861230765828 5.115553467902165 -0.11170093063887208 -1 -1 0
70 3 14.640354531458314 5.315978876402148 3.0130621238284543 -1 -1 0
31 1 -11.16830013089163 19.833695209918382 1.2759799987237903 -1 -2 0
35 2 15.996412742405099 0.11655231201061463 -0.23304401389615748 -1 -1 0
36 3 15.993223957580971 0.027776128719368236 2.8666665625830277 -1 -1 0
33 3 -9.35061967554669 19.210045509283194 2.7966816340495635 -1 -2 0
32 2 -9.42305255886003 19.142406326966867 -0.14519221784478029 -1 -2 0
350 5 12.636263694955728 11.714481023380202 6.165004192746755 0 1 0
351 6 12.556203054600017 11.56424633425959 9.484844187456643 0 1 0
376 4 16.34783777726139 10.753816576197984 7.928949317964955 0 1 0
346 4 13.181553706823502 9.770899194791424 7.844882832731414 0 1 0
348 6 14.976874493089925 9.462447200364181 9.528160221608426 0 1 0
347 5 15.133939575108432 9.241509455537601 6.313370861192397 0 1 0
59 1 -7.961834232592627 20.436690725222505 1.3127319409056277 -1 -2 0
60 2 -6.1222630158557125 20.063393305946185 -0.1947608922284097 -1 -2 0
61 3 -6.413385331178164 19.96100841091069 3.0220909414194943 -1 -2 0
343 4 15.653883906922104 7.545543839497755 7.931358339923763 0 1 0
344 5 17.560430867413757 7.118358023400913 6.281111233195519 0 1 0
345 6 17.422114066172256 7.05583881725531 9.542328791119665 0 1 0
64 3 19.089125339238137 0.6201197503187211 3.021257812671261 -1 -1 0
63 2 19.073484028769112 0.7551596583776684 -0.14602515050922515 -1 -1 0
377 5 18.17729657199678 10.301685235965065 6.285715672094155 0 1 0
378 6 18.112000721368624 10.30775609014215 9.690531005162631 0 1 0
314 5 14.359774174378833 6.086254308316991 6.174940463053194 0 1 0
315 6 14.389221261947272 6.234933143856991 9.603963820666014 0 1 0
340 4 18.112122849978583 5.3668215522990845 7.9975493049021384 0 1 0
62 1 17.31717041108803 1.2013523405743525 1.4425097045173696 -1 -1 0
67 3 16.82534237792701 2.8926082357358887 3.239791786311868 -1 -1 0
66 2 16.98497949164504 3.108705531050446 0.000908760986298719 -1 -1 0
93 2 22.289238803313445 1.4584306583703806 0.08378174100739241 -1 -1 0
92 1 20.527092593677548 1.9058073738567514 1.567525535004447 -1 -1 0
406 4 19.38331357847522 11.769665279191383 7.969962885004822 0 1 0
373 4 18.795683485539794 8.51817214747283 8.009301082182565 0 1 0
310 4 14.975034972875505 4.397520700153136 7.88682513254036 0 1 0
312 6 16.851440280992303 4.01012189725049 9.720726278180642 0 1 0
311 5 16.9139885986564 3.9520127669432035 6.213079360901747 0 1 0
65 1 15.183707088016048 3.5520331784111563 1.4965752092304128 -1 -1 0
95 1 18.3681639430294 4.29346650645325 1.6132958572384954 -1 -1 0
125 1 21.458109236071117 4.8032589367007255 1.5529132816976612 -1 -1 0
96 2 20.063394207396353 3.7011605903920506 0.01911865771974754 -1 -1 0
97 3 20.12398045948938 3.6354098520196443 3.109786205796728 -1 -1 0
374 5 20.68830603946189 8.139548812437374 6.408405770188403 0 1 0
375 6 20.62640130792264 8.135677561867476 9.664031501765194 0 1 0
341 5 20.05617405429093 4.963332779133743 6.380615130404542 0 1 0
342 6 20.070118082181278 5.066628592082658 9.65188161545181 0 1 0
283 5 13.624158795621303 2.975472516744944 6.35399652394041 0 1 0
284 6 13.67060600617896 2.812708611838679 9.632021478333138 0 1 0
307 4 17.464282853582763 2.136173756876692 8.008321571090118 0 1 0
337 4 20.686381416203023 3.099889670003333 7.99916603513706 0 1 0
102 2 15.837983758569745 8.046015766010482 -0.03363562875257141 -1 -1 0
98 1 16.18688064620881 6.415330322283602 1.6043715551125655 -1 -1 0
99 2 18.015500760093282 5.947200920604905 0.21689817464192548 -1 -1 0
100 3 17.8754867046336 5.958980386443155 3.228696974589275 -1 -1 0
129 2 20.976424728159003 6.598531112421198 0.04175983722263356 -1 -1 0
130 3 21.146718909511183 6.614816564782777 3.2014080903510456 -1 -1 0
128 1 19.406874130441807 7.197321592332612 1.716361530085318 -1 -1 0
179 1 29.79824208405649 4.152592010705947 1.5815473196260552 -1 -1 0
89 1 -4.886675865249087 21.177921401222697 1.590065162091099 -1 -2 0
94 3 22.24747501058207 1.241958263978305 3.285631148803037 -1 -1 0
127 3 23.228517716155586 4.349667003383621 3.1098700872824647 -1 -1 0
126 2 23.24381070175608 4.280703876633148 0.041395906696667525 -1 -1 0
151 3 28.54625076650003 2.8571309803604823 3.2898716271911135 -1 -1 0
90 2 -3.0705848405394924 20.686539949134335 0.03984846887661664 -1 -2 0
91 3 -3.241950468116542 20.540670991688696 3.332505398860921 -1 -2 0
122 1 23.61474463205072 2.5615568237622295 1.7648439593382295 -1 -1 0
119 1 25.779056485024118 0.39067030647974144 1.7870288211085763 -1 -1 0
407 5 21.27219461468631 11.337436808040891 6.2220274722866105 0 1 0
408 6 21.215812325967118 11.284699458698535 9.563538075684908 0 1 0
118 3 2.127200475958581 19.274298697746563 3.2498153885761547 -1 -2 0
117 2 1.9402696381678695 19.15105102623746 0.09285693249250462 -1 -2 0
403 4 21.91600528772054 9.52229170943699 8.00682576794199 0 1 0
433 4 -12.531229375479812 10.623772823436422 7.9949526147239816 1 1 0
405 6 23.712350091251892 9.056746025932828 9.65682641400501 0 1 0
404 5 23.72255702524316 9.150991014728737 6.346513782490507 0 1 0
116 1 0.2908481441115672 19.524220166963033 1.789114758910628 -1 -2 0
146 1 28.76543296066098 1.0240122859801304 1.7451260376046458 -1 -1 0
400 4 24.24912381661426 7.280649320020649 8.007862750453194 0 1 0
402 6 26.270612153802823 6.899197323126062 9.77559365067722 0 1 0
120 2 0.0007687822317312289 21.235683495565272 0.18326591231745265 -1 -2 0
121 3 -0.1036180846718694 21.1879804603147 3.384544678436818 -1 -2 0
401 5 25.98043194311323 6.943120827347192 6.293998641996999 0 1 0
150 2 28.405039172463674 2.732848262936411 0.055767707918410556 -1 -1 0
370 4 21.240644526944475 6.364457831408051 8.066938266242007 0 1 0
371 5 23.029640784262956 5.913312692842468 6.460768554030751 0 1 0
372 6 23.06439561298922 5.923301888155698 9.746551871648405 0 1 0
124 3 25.48916534660124 2.147119098213392 3.1863749128231182 -1 -1 0
123 2 25.36227034035008 2.0874656602094945 0.0416518733485939 -1 -1 0
430 4 -10.215733612837852 8.431492286760514 7.993597063688665 1 1 0
153 2 26.347437888153642 5.011349768060547 0.007854798993293327 -1 -1 0
154 3 26.2349766838625 5.239859797180723 3.2548244546903744 -1 -1 0
367 4 23.64894770005323 4.027449140888414 8.158877062980709 0 1 0
397 4 26.689367461206853 5.067467571325066 8.049085142207284 0 1 0
369 6 25.449895506410073 3.617820607153266 9.858910956534178 0 1 0
368 5 25.592764345977045 3.4664924856580726 6.439675845947896 0 1 0
149 1 26.776738897711454 3.358825496817849 1.6139886778147916 -1 -1 0
398 5 28.62880022499264 4.596389547166177 6.33407213195939 0 1 0
399 6 28.611842188798914 4.569797308808921 9.735008334069853 0 1 0
156 2 24.078618171373034 7.1327021241871975 0.004336238963888792 -1 -1 0
157 3 24.102898347191463 7.384826445807962 3.1575865286486358 -1 -1 0
339 6 22.345145233955783 2.609378378456209 9.68789905523984 0 1 0
338 5 22.55231038393245 2.624214950733844 6.4670396504031755 0 1 0
364 4 26.136574215274653 1.8313754476225212 8.13845405877507 0 1 0
155 1 22.382728313874704 7.7913867914047925 1.5630900206396305 -1 -1 0
152 1 24.54820972915523 5.490322536363616 1.6011802209940484 -1 -1 0
175 3 8.526208036864315 20.46704797765144 3.0229720319368574 -1 -2 0
174 2 8.361125734077012 20.40197401157421 -0.08861875818432528 -1 -2 0
176 1 32.05304044165875 1.6911354748749499 1.495283899471873 -1 -1 0
177 2 33.73551722397318 1.115556935118675 -0.059428907295355424 -1 -1 0
178 3 33.85460781093689 1.3768988570248668 3.0566855013732632 -1 -1 0
147 2 30.50340984709155 0.6180046678955794 0.135829684008244 -1 -1 0
148 3 30.57711163456169 0.559037916386462 3.2375201952038015 -1 -1 0
143 1 3.5749629250493147 20.441931879116424 1.537008918218532 -1 -2 0
173 1 6.697130304679873 21.07217493635657 1.5847409417945946 -1 -2 0
144 2 5.273598870609423 19.894190481836485 0.05603200729083713 -1 -2 0
145 3 5.462663720845561 20.001663824422913 3.1587611540938285 -1 -2 0
427 4 29.77142497413387 6.046863123005633 8.04502135527905 0 1 0
428 5 -5.971890910087809 5.443907925323511 6.326676639292258 1 1 0
429 6 -5.8495090770403 5.536360384894614 9.70324629156915 1 1 0
424 4 32.18582727432284 3.750318900555277 7.9794651798630944 0 1 0
394 4 29.269641454407196 2.6723085169196126 8.062963286753247 0 1 0
396 6 31.09244003432948 2.193894579960078 9.681917080940183 0 1 0
395 5 30.961303953025013 2.275348407587792 6.328087191069238 0 1 0
425 5 -3.491520646730402 3.283903820717992 6.40520893211656 1 1 0
426 6 -3.596403825597347 3.288776497313828 9.681823540361474 1 1 0
197 1 -20.541692691013846 17.927177796958492 1.183689614344661 0 -1 0
169 3 15.662147890717195 16.699053742367024 2.799650666977728 -1 -1 0
167 1 14.00744200787337 17.18343145577209 1.2345322232558469 -1 -1 0
202 3 -24.011812707824546 18.9620288172666 2.80365644753848 0 -2 0
201 2 -24.13596245010899 18.90840175847154 -0.3931054917635317 0 -2 0
198 2 -18.821351579773076 17.01521961202865 -0.32096877725851536 0 -1 0
199 3 -18.98506244916221 17.081846501872988 2.877139489863053 0 -1 0
168 2 15.735792213156873 16.630859539752453 -0.24749406836571353 -1 -1 0
166 3 17.725599113283334 14.201829923761707 2.862262868088238 -1 -1 0
194 1 -18.436693595586117 15.30888536458177 1.3302703272161644 0 -1 0
165 2 17.670607828518154 14.19327044309776 -0.2631716269876262 -1 -1 0
449 5 -22.8760824003177 21.45367014083339 6.170762535903167 1 0 0
450 6 -23.050911741341555 21.44484795641184 9.569227598147137 1 0 0
478 4 5.677675301339666 1.383982500644569 7.887901251016426 1 1 0
447 6 -20.50062781498373 19.170302573112473 9.614435954575873 1 0 0
446 5 -20.57734966794055 19.077251266651356 6.279686140745411 1 0 0
444 4 -19.930013333963508 17.215156132554537 8.021378375687872 1 0 0
445 4 -22.307276534078806 19.627616523749314 7.850339812568505 1 0 0
448 4 2.7018068746306922 0.34727060892622436 7.875068899296371 1 1 0
466 4 -11.853439491228068 13.698664461033909 8.041834524025969 1 1 0
256 1 -17.485762539396116 18.37383794633624 1.3042557605719394 0 -2 0
227 2 -15.779033283354156 17.77884090453467 -0.3941872430414917 0 -1 0
228 3 -15.789787000555311 17.869919991765045 2.866826960041462 0 -1 0
278 3 -12.449795588289419 18.66152514568021 2.8926664300776888 0 -2 0
277 2 -12.354043886061568 18.577202012558548 -0.299362829529879 0 -2 0
276 1 -14.22026160814838 19.098437366455812 1.1986966042985663 0 -2 0
253 1 -12.144171360414132 16.765154259146648 1.3644979216776578 0 -1 0
254 2 -10.358002042696246 16.164975688804624 -0.09770166346748756 0 -1 0
470 5 -12.425100375763916 15.516987738198772 6.442354484699089 1 1 0
196 3 -16.698369375660477 14.927116179663058 2.9809225134558255 0 -1 0
195 2 -16.79623720565918 14.806871355889799 -0.13308768625605202 0 -1 0
224 1 -15.344754872309863 16.10177573459352 1.2951958252835825 0 -1 0
225 2 -13.433422438718221 15.481239230758149 -0.2055851507619183 0 -1 0
226 3 -13.618333589839944 15.617157910656749 3.0138732840362334 0 -1 0
191 1 -16.296537357431507 13.039738531669798 1.4562018682128974 0 -1 0
469 4 -14.43607214375731 15.94746534533556 7.841079161052371 1 1 0
192 2 -14.558790389786806 12.475275431775984 0.015737835098839078 0 -1 0
193 3 -14.49496544144206 12.654938341418779 3.0778369908980707 0 -1 0
221 1 -13.13899841878971 13.819186939631127 1.5703522032341077 0 -1 0
222 2 -11.391922351888038 13.198059382099041 -0.1027514527304537 0 -1 0
223 3 -11.391380845516156 13.306707350295982 3.117642857288469 0 -1 0
472 4 -16.891939199307654 18.251961041098657 8.018497497611301 1 0 0
473 5 -15.084252702830014 17.8805978667424 6.261618274595777 1 0 0
474 6 -15.080215840689721 17.813959089309126 9.574403910960829 1 0 0
218 1 -11.058084008854703 11.45888612101526 1.517528952031531 0 -1 0
188 1 23.391114274739063 10.789569833635788 1.4426330120898876 -1 -1 0
189 2 -12.471537394519364 10.286778738281038 -0.1110798494040592 0 -1 0
190 3 -12.643219648229683 10.200809715202784 3.102794797467771 0 -1 0
185 1 25.54977675379449 8.472744882083104 1.45435051463626 -1 -1 0
476 5 -17.555121231419214 20.122592800132498 6.409155214381108 1 0 0
477 6 -17.563051871186357 20.14503653119111 9.701302337778921 1 0 0
505 4 11.174572836054862 0.03555590499989308 7.989941602022566 1 1 0
479 5 7.41498624293573 0.9318446675044295 6.280435693623908 1 1 0
480 6 7.444140805738107 0.8988632492830483 9.531468422888025 1 1 0
475 4 -19.445527208118808 20.52413865214877 7.92487771476536 1 0 0
506 5 -14.311374229719464 21.13524321927936 6.292541492656564 1 0 0
507 6 -14.375943823695584 21.12717160100689 9.702657922679641 1 0 0
502 4 -13.877572397239982 19.33877992566749 7.967018748248288 1 0 0
535 4 14.364206021582262 1.1591847095945793 7.986872108631807 1 1 0
442 5 -18.0733378881311 16.855004695240055 6.383468446870747 1 1 0
443 6 -18.151512261990653 16.67804274889591 9.74895123566413 1 1 0
471 6 -12.69163470043336 15.543818925334188 9.602800421011766 1 1 0
504 6 -11.984894931690176 19.011584068840058 9.718889085324383 1 0 0
503 5 -11.706576314062223 18.88209799026744 6.387525077289448 1 0 0
441 6 -15.725151279928623 14.71599417596134 9.565882366557025 1 1 0
440 5 -15.713329558986215 14.339586297521183 6.283313265034883 1 1 0
439 4 -17.537586415527056 15.075544524080504 7.968100454863382 1 1 0
468 6 -10.076799402263209 13.475592491842423 9.737938717264134 1 1 0
467 5 -9.905046854376293 13.603262803883776 6.399229769417768 1 1 0
493 4 -6.382373712486181 12.508025315149307 8.114535652474432 1 1 0
255 3 -10.453667161543757 16.3763103537015 3.07838355212346 0 -1 0
6 1 -9.04248919358103 17.414019003877932 1.4008707380587442 -1 -1 0
30 3 -4.3804852077763154 17.656409101448833 3.213623622674626 -1 -1 0
7 2 -7.264087126097122 17.002002545295216 -0.17833836017626048 -1 -1 0
8 3 -7.445597504189605 16.996836576701025 2.993143775902463 -1 -1 0
29 2 -4.156360879121363 17.74277387018898 0.07991983395851655 -1 -1 0
58 1 -5.960232906993477 18.232100340293773 1.5005672587417591 -1 -2 0
86 1 -2.8101962902573634 18.912194250114265 1.7251160154916572 -1 -2 0
250 1 -10.10657905299751 14.411604754304866 1.5692592476261196 0 -1 0
219 2 -9.279636691794549 11.020475789654107 -0.1051625081383287 0 -1 0
220 3 -9.270751366414054 10.758585993745971 3.0318134984369247 0 -1 0
496 4 -8.778306247836964 15.02999969345543 8.120950373834054 1 1 0
497 5 -6.947670800692592 14.504310374067934 6.450216564377441 1 1 0
498 6 -6.929946123255092 14.477653460597418 9.73189117060063 1 1 0
26 1 -3.7997149774493595 15.929608753712046 1.5937710793572502 -1 -1 0
3 1 -6.8015957542942465 15.216569697433266 1.4189405093015603 -1 -1 0
4 2 -4.985444243180409 14.66594699035031 -0.14675216988080284 -1 -1 0
5 3 -5.2034989040403845 14.71749161352786 3.1502317812639182 -1 -1 0
251 2 -8.270700014930892 14.037138893968757 -0.06321887046795023 0 -1 0
252 3 -8.36899018412624 13.971949367453588 3.0858354336923104 0 -1 0
247 1 -7.980559087406795 12.1346994140854 1.4244965492690267 0 -1 0
215 1 -8.923282646632694 9.021641631596285 1.4964139726936898 0 -1 0
499 4 -11.39156870400921 16.989492993130106 8.09593293442188 1 1 0
500 5 -9.498699472719547 16.871400922230503 6.432921183950827 1 1 0
501 6 -9.483100329488764 16.775550870325915 9.68602094116711 1 1 0
526 4 -5.724149588199945 15.889595794482373 8.057395829639509 1 1 0
275 1 -4.844393452614838 12.95355534400227 1.5761625015993344 0 -1 0
1 2 -3.123387264908976 12.428233774267262 0.0751432539270833 -1 -1 0
2 3 -3.2232250571865286 12.421607093623399 3.184867541571956 -1 -1 0
216 2 -7.083274196003359 8.795875666898414 -0.12427623024188936 0 -1 0
217 3 -7.152933409816889 8.803282006721286 3.1058753499593874 0 -1 0
529 4 -8.22525667290607 18.17948951375758 8.129080925639188 1 0 0
248 2 -6.2016937355275905 11.70470376261457 0.01554010460156671 0 -1 0
249 3 -6.373130715321311 11.7786581042586 3.0584544693022226 0 -1 0
272 1 -2.6828538705029086 10.663086974244464 1.558074362122013 0 -1 0
244 1 -5.767159018438018 9.988035324422217 1.5874687475313831 0 -1 0
533 5 -8.738489820146123 19.99469271253948 6.449852192540961 1 0 0
214 3 -3.979770080313379 9.41942135681651 3.0504000155522513 0 -1 0
245 2 -3.986202375344826 9.491492794925358 0.1008609276048247 0 -1 0
246 3 -3.8780249048673734 9.382846556400988 3.0996087935581538 0 -1 0
534 6 -8.863789528248157 20.06221620260589 9.759300852891663 1 0 0
532 4 -10.730943656681985 20.425320970647643 8.132916334982818 1 0 0
308 5 19.371476952426075 1.6531894750300213 6.372127501886953 0 1 0
309 6 19.378120872699913 1.7600302777181134 9.662050545117562 0 1 0
536 5 16.247412220510064 0.7152888316020081 6.385438636288775 1 1 0
537 6 16.211136581296927 0.7924494878887963 9.640436640376281 1 1 0
304 4 -7.628343790701771 21.398635775347138 8.155644814979059 0 0 0
531 6 -6.366311277576503 17.670434553485343 9.790372014269025 1 0 0
530 5 -6.411092868017296 17.685073060627044 6.4826055540486625 1 0 0
306 6 -5.873176957564907 20.92880486493134 9.913350668168576 0 0 0
301 4 -5.185293126845191 19.14702231357337 8.300268205717275 0 0 0
305 5 -5.64788097353414 20.871792160417524 6.552382910879299 0 0 0
527 5 -3.935084935150214 15.393169310773684 6.326599626949511 1 1 0
528 6 -3.895306600387332 15.42449565291632 9.667635830494861 1 1 0
334 4 22.975405307808494 0.8086379357425126 8.130572639637304 0 1 0
524 5 -1.5499038836783485 13.206118872486027 6.299750392438527 1 1 0
525 6 -1.5117956234702234 13.064484873833907 9.623766314469792 1 1 0
523 4 -3.3209899269729006 13.534148820641906 8.057828442226837 1 1 0
297 6 1.609277359142533 13.942989079298883 9.635053887445762 0 1 0
296 5 1.4329494271198717 14.061499802512053 6.231494984890112 0 1 0
55 1 -0.7731126195096308 16.4969828040909 1.7247105552797148 -1 -1 0
87 2 -0.981178308497434 18.319526834207892 0.2596852622584451 -1 -2 0
88 3 -1.0496439710576042 18.33907646504878 3.3383098449713247 -1 -2 0
83 1 2.3565937280464304 17.51801920731172 1.7016600502654786 -1 -1 0
113 1 5.531951382951551 18.170820034431593 1.571723916788257 -1 -1 0
84 2 4.169313867493407 16.97213626361257 -0.014352417113462721 -1 -1 0
85 3 4.202567824716266 16.76453568454493 3.225877704780325 -1 -1 0
28 3 -2.2327631179430405 15.258801774761018 3.308306069464698 -1 -1 0
27 2 -2.0530609469799894 15.332895161504927 0.09858858410387297 -1 -1 0
23 1 -1.7502963303013757 13.611709978049207 1.730583643934961 -1 -1 0
295 4 -0.2256528440299835 14.521366147479153 8.12982634006269 0 1 0
325 4 2.8014707945144375 15.455177741876831 7.977881356728581 0 1 0
57 3 1.0570100636977526 16.132498194706432 3.2391235891980577 -1 -1 0
56 2 1.1289818413218367 16.124909859361676 0.2365990482658014 -1 -1 0
52 1 1.5330473620900622 14.330124156715858 1.7148688866794506 -1 -1 0
80 1 4.532825009676818 15.067629013229524 1.6363474041992447 -1 -1 0
24 2 0.03627543452250859 13.246954541541067 0.19551355894952602 -1 -1 0
25 3 0.080783789155672 13.121242487838717 3.314577904822164 -1 -1 0
273 2 -0.8816322873216198 10.126055813643564 0.08774814902334463 0 -1 0
274 3 -0.7957360442138675 10.129350781405565 3.1930191568785506 0 -1 0
20 1 0.47126632675404273 11.41056310407781 1.5908461793439292 -1 -1 0
269 1 -0.4839047188375026 8.374562899379054 1.531975787382325 0 -1 0
299 5 -0.7838184023996086 16.309894542609904 6.411719145176176 0 1 0
300 6 -0.8263635443919083 16.400109916129388 9.853918874363808 0 1 0
298 4 -2.682012269244192 16.80908640885566 8.070258854074899 0 1 0
329 5 2.2983852211394558 17.313250001766882 6.358565965517776 0 0 0
330 6 2.24919147228649 17.424552659927187 9.761803758624922 0 0 0
54 3 3.2723002737796074 13.716392777393706 3.140416337726414 -1 -1 0
53 2 3.0311112610146784 13.919567071506664 0.16896643724592225 -1 -1 0
49 1 3.582232014481513 12.08334404781519 1.5455164990089933 -1 -1 0
328 4 0.45114613269342113 17.78959544260019 8.078193384583999 0 0 0
303 6 -3.1320807675472118 18.597592125713298 9.753308956765503 0 0 0
302 5 -3.3833951703218745 18.744695669743933 6.609589997321653 0 0 0