LAMMPS data file via write_data, version 27 Jun 2024, timestep = 40000, units = metal

540 atoms
6 atom types

0 37.59365801343109 xlo xhi
0 21.52779524830364 ylo yhi
-0.34289933024096964 9.662866394134978 zlo zhi
-27.49615054720427 0 0 xy xz yz

Masses

1 95.95
2 32.06
3 32.06
4 95.95
5 78.971
6 78.971

Atoms # atomic

37 1 29.048292423456935 6.628841780102521 1.362829727959863 -1 0 0
41 2 -8.850619809629283 8.42213919501328 -0.18687437879131982 0 0 0
42 3 -8.951817413855782 8.379543515116133 2.9206553874983703 0 0 0
310 4 -5.220600613577853 8.403642424573317 7.988193177415226 0 0 0
311 5 -3.3703420163462123 7.968391704746955 6.334204302122525 0 0 0
312 6 -3.376261439085112 7.9619946711905225 9.648131265734035 0 0 0
314 5 -5.821551495671774 10.222151650203157 6.325260592742232 0 0 0
315 6 -5.82447587289358 10.225536880910019 9.639121549698311 0 0 0
313 4 -7.674146611638635 10.649474666724506 7.978558702830224 0 0 0
38 2 -6.745690303038181 6.108156858332298 -0.12980503779985042 0 0 0
39 3 -6.856889363773277 6.098564590031101 2.9780597667119113 0 0 0
65 1 -5.421592538038465 7.309440781913249 1.4782012562707452 0 0 0
35 2 -4.63758043820744 3.8192266119543183 -0.05524050019111657 0 0 0
36 3 -4.737273175554652 3.8274635895961753 3.0536600516051196 0 0 0
285 5 -8.917087761307048 9.218533972493487 6.327402121031018 0 0 0
286 6 -8.918052636556425 9.218693025697355 9.640132179589628 0 0 0
283 5 -6.455838036589192 6.976736046607495 6.330957783053422 0 0 0
284 6 -6.461382952081098 6.965732537961208 9.644085931614933 0 0 0
536 5 -4.0056007609983215 4.719093001656042 6.326765556261417 1 0 0
537 6 -4.014204173742092 4.699484717366456 9.640502770498012 1 0 0
40 1 -10.64055500775896 8.939232321996675 1.317955905877358 0 0 0
69 2 -5.732762991092253 9.102059299115055 -0.06936766908891777 0 0 0
70 3 -5.83299469555997 9.060641442800861 3.0385990693791274 0 0 0
539 4 -10.77244051534497 9.635621753855709 7.9818488063132875 1 0 0
68 1 -7.52706584703516 9.607901038603872 1.4318352103631615 0 0 0
62 1 -3.305036736091875 5.029130752017972 1.5387749347939654 0 0 0
66 2 -3.6233099876673434 6.807937561515065 -0.02104380489020176 0 0 0
67 3 -3.719664090342299 6.787994909895452 3.0873844762794036 0 0 0
538 4 -8.310204529720753 7.398654061864143 7.986660937832213 1 0 0
535 4 -5.85705176747992 5.14765566471541 7.983718982625927 1 0 0
532 4 -3.418751809979316 2.88191209220203 7.9748805433907375 1 0 0
98 1 -4.4131592773615225 10.298664702157005 1.5433707955132683 0 0 0
307 4 -2.7739074262188566 6.141849294260172 7.990027140370107 0 0 0
340 4 -2.1326932901753355 9.392015573077318 7.990849605115281 0 0 0
308 5 -0.9269505032022106 5.701625094344261 6.333757954507557 0 0 0
309 6 -0.9333964776401116 5.685323711799925 9.647854178405384 0 0 0
304 4 -0.3378620102018499 3.8675990489537044 7.982418982068212 0 0 0
341 5 -0.2878937278109496 8.943151527021692 6.337357628323451 0 0 0
342 6 -0.2908374491451325 8.94479488452746 9.651719705676989 0 0 0
59 1 -1.171227032285553 2.7640196656779046 1.5924853308466538 0 0 0
63 2 -1.5112934773406574 4.533573174224269 0.02962135114972495 0 0 0
64 3 -1.5868046056374119 4.5256457765299265 3.1390451167090236 0 0 0
92 1 -0.1712543745955973 5.745553713315647 1.6160814380990787 0 0 0
95 1 -2.2958469025808084 8.0143518753603 1.5803390552587668 0 0 0
96 2 -0.5125646321409323 7.522000861036623 0.05995170807235418 0 0 0
97 3 -0.5673012931287523 7.50926122034985 3.169375662716866 0 0 0
301 4 2.0871561819674347 1.5880362632893574 7.966985615721147 0 0 0
305 5 1.5052540402148327 3.4262796986935484 6.322628340502193 0 0 0
306 6 1.5017993129259801 3.4040704974555887 9.636945472487623 0 0 0
334 4 2.7439618820960736 4.842118869417955 7.98835895618576 0 0 0
335 5 4.584148555888286 4.3956931824250045 6.326655814074282 0 0 0
336 6 4.58619878324772 4.37868877709706 9.640902292317705 0 0 0
337 4 0.3080624345862118 7.121053726650497 7.995949703080204 0 0 0
338 5 2.1497789627802 6.670387389305207 6.338647809204307 0 0 0
339 6 2.1490584331949307 6.6614698751425685 9.652866394134978 0 0 0
367 4 3.3883570117066686 8.09253824079932 7.997347883368158 0 0 0
370 4 0.9521056580460493 10.369256962190454 7.991486694126789 0 0 0
371 5 2.7910456857874983 9.910435158386559 6.336423511157293 0 0 0
372 6 2.794184940288034 9.920902977585774 9.651037985945736 0 0 0
60 2 0.611103785504653 2.2762083784605474 0.06504885370948262 0 0 0
61 3 0.5665856961857012 2.2640114757999292 3.175482425235265 0 0 0
58 1 0.9793609495140053 0.5068625570936562 1.6190383464197227 0 0 0
93 2 1.6030717906428147 5.256260670065845 0.08240201695355187 0 0 0
94 3 1.5731804933897642 5.252204721277646 3.1923365855382158 0 0 0
89 1 1.964715416481272 3.4858263675298455 1.6395299322678885 0 0 0
126 2 2.594110484363256 8.245429349174813 0.08933927882075111 0 0 0
29 2 2.7459459994167226 0.027659976399973422 0.06969837762717165 0 1 0
30 3 -24.761252689327353 21.52221978375752 3.180686618095717 0 0 0
127 3 2.5936320558274435 8.248980428904948 3.1993642614391264 0 0 0
122 1 2.96295770205756 6.476105184825858 1.6456633444371236 0 0 0
125 1 0.8340443735467931 8.737715229072727 1.638332591172173 0 0 0
90 2 3.725704328556601 2.996967073099023 0.08911222306710141 0 0 0
91 3 3.7237397311477385 2.9907588656203288 3.1996039328505588 0 0 0
303 6 3.9288510657765157 1.127963451306402 9.618921082136318 0 0 0
302 5 3.9275329708898017 1.1488830597500839 6.304357736359961 0 0 0
86 1 4.111636598012315 1.2263569409072776 1.6392092626163692 0 0 0
533 5 -1.5721707118059356 2.4472746855645835 6.31617572137394 1 0 0
534 6 -1.5793617938377578 2.424668428951496 9.630430361138927 1 0 0
99 2 -2.6276652716381497 9.798492940397114 0.029608604509266837 0 0 0
100 3 -2.6975279592071226 9.774190057945827 3.1387779760795955 0 0 0
152 1 3.9694058844444764 9.467325097857183 1.6384351021943162 0 0 0
123 2 4.710563209913828 5.980794007234014 0.08273436462919628 0 0 0
124 3 4.7353557264961905 5.993305987398808 3.192714246540293 0 0 0
129 2 0.474523795158135 10.509959201079294 0.0830609972173184 0 0 0
130 3 0.4511391648565714 10.508080546216593 3.1931942469930736 0 0 0
530 5 0.8452246137202867 0.16718886895501953 6.301975662237251 1 0 0
531 6 0.8439239899794864 0.14840042822429833 9.61651701656647 1 0 0
331 4 5.174246497305904 2.563738670307436 7.970367862370633 0 0 0
368 5 5.225661835583446 7.6356384505522525 6.33789901161476 0 0 0
369 6 5.232104046236836 7.636031065878298 9.65218216972887 0 0 0
364 4 5.826273852837647 5.8135223234596785 7.98974187013685 0 0 0
397 4 6.46650840038889 9.066066935717005 7.992393158997054 0 0 0
332 5 7.015694201530427 2.1252840463771077 6.306645035300251 0 0 0
333 6 7.0188707043659795 2.1070341793592533 9.621055967094852 0 0 0
366 6 7.67209806672769 5.356846300600023 9.641049368028877 0 0 0
365 5 7.665627903149207 5.365615313112175 6.326956670469073 0 0 0
361 4 8.26440058473344 3.540804449413589 7.972261316171814 0 0 0
398 5 8.302268501823226 8.60904924414176 6.332015570803467 0 0 0
87 2 5.858067567008194 0.7373840484426409 0.07210848462139186 0 0 0
88 3 5.880293041529748 0.7145457944834395 3.1830136998313874 0 0 0
116 1 7.233867387073773 1.9480442621106226 1.6201420905191937 0 0 0
119 1 5.095896053154724 4.215820727423454 1.6405357424471438 0 0 0
120 2 6.829921891200086 3.711792426720459 0.06481290428979898 0 0 0
121 3 6.876287748470441 3.7280264527543157 3.17487097406913 0 0 0
146 1 8.222861732576732 4.940692432419783 1.5861195622009248 0 0 0
149 1 6.097796186112134 7.207227675385316 1.6162166569498464 0 0 0
150 2 7.818570693199555 6.6994899516216115 0.026108967714961996 0 0 0
151 3 7.892344926869916 6.7277557718598295 3.1355424893148696 0 0 0
362 5 10.10921328085263 3.1056391908831644 6.309377570685165 0 0 0
363 6 10.112119960475987 3.0929159329643316 9.62340754414143 0 0 0
391 4 11.355718180414007 4.528168270030186 7.974119384071191 0 0 0
392 5 13.20563570064243 4.099499459133095 6.314161983466431 0 0 0
393 6 13.206247234747186 4.092009955209994 9.627375447906868 0 0 0
394 4 8.90831688788477 6.791660445558853 7.986955094426964 0 0 0
395 5 10.749925467424573 6.347251847460719 6.32562960606709 0 0 0
396 6 10.757476083155588 6.3466816083137605 9.639209895109186 0 0 0
399 6 8.313475636021124 8.617829557283265 9.64613377556836 0 0 0
424 4 11.990347413319217 7.784117637630644 7.9831014583354065 0 0 0
427 4 9.543238935618236 10.050016824569981 7.983443081739556 0 0 0
428 5 11.380904145306902 9.598814437504355 6.324603695152276 0 0 0
429 6 11.39306538768402 9.613228582498618 9.63808529547663 0 0 0
117 2 8.957032995429868 1.4345333842695844 0.035466639715974496 0 0 0
118 3 9.014863301277378 1.4427000910121253 3.145896657934065 0 0 0
179 1 9.233119520030089 7.925184833802816 1.5347934967322743 0 0 0
147 2 9.93207733823399 4.414427703546887 -0.010662514006032495 0 0 0
148 3 10.018062966114572 4.456131804813397 3.0983948190703376 0 0 0
143 1 10.348042822971948 2.660523215045092 1.5543735237071452 0 0 0
358 4 10.702692137676946 1.2814924450810772 7.953570502746099 0 0 0
181 3 11.037334842997256 7.4363121072919025 3.0350231559108827 0 0 0
180 2 10.935103865864024 7.405967988542804 -0.07373233329015617 0 0 0
176 1 11.347177796273748 5.647722753414118 1.4853216531100981 0 0 0
154 3 5.755645188194815 8.985959921917036 3.17089471375809 0 0 0
153 2 5.7048090833254355 8.970698954938376 0.06085561314767097 0 0 0
144 2 12.052741930614827 2.1157664488932277 -0.041300929843035857 0 0 0
145 3 12.134925649370237 2.1623289668961196 3.0680941972789553 0 0 0
209 1 12.368018008374369 8.62160034539401 1.4261248605725436 0 0 0
113 1 12.474684380937445 0.3624838842258186 1.5253967837726645 0 1 0
359 5 12.554314689736541 0.8590086684317013 6.293391658934451 0 0 0
360 6 12.552370445972738 0.8486605843577267 9.607479527329065 0 0 0
184 3 8.911659381669676 9.700819262012798 3.09579610128618 0 0 0
183 2 8.825861403402724 9.690272834605171 -0.01390385352248632 0 0 0
177 2 13.042665887698755 5.101103759357469 -0.12133377952711105 0 0 0
328 4 7.60139835208539 0.2944919111017949 7.950412568400687 0 0 0
182 1 7.109736404737547 10.189791704943044 1.5859896001579226 0 0 0
213 2 11.960087874700507 10.398569147764514 -0.10888239715258613 0 0 0
214 3 12.055469772360686 10.384292110720663 3.000469062986132 0 0 0
388 4 13.805845710263188 2.279851798878521 7.959782138649892 0 0 0
425 5 13.836421113357341 7.347564111416297 6.325376379564177 0 0 0
426 6 13.842350651701603 7.3527785945319515 9.637987161360465 0 0 0
421 4 14.446953067175764 5.53170839849489 7.977634708635112 0 0 0
459 6 14.47372806899967 10.623201771820257 9.63077340671525 0 0 0
458 5 14.463124120629384 10.606015886900314 6.318078212969824 0 0 0
454 4 15.074265079708143 8.79290319006157 7.980317930561166 0 0 0
389 5 15.663204254410587 1.8647722580409476 6.301967721122913 0 0 0
390 6 15.657438364102646 1.8551625495395285 9.615184013485214 0 0 0
422 5 16.301734652229943 5.111225549898483 6.321157729107343 0 0 0
423 6 16.30009944931397 5.106758976112148 9.633290730087175 0 0 0
170 1 15.571640301616544 1.0427552378319005 1.445413809594484 0 0 0
173 1 13.458265753528265 3.353522522035263 1.452611740344226 0 0 0
174 2 15.15727615077941 2.7814899955535486 -0.14173655286116732 0 0 0
175 3 15.239837230978502 2.8582730155031078 2.9666662833734807 0 0 0
178 3 13.144367311051644 5.157350993042362 2.986824853215889 0 0 0
206 1 14.470633425273832 6.330452934020708 1.3661398171759833 0 0 0
207 2 16.16935576975609 5.772839726192706 -0.2348021171493392 0 0 0
208 3 16.254394766778745 5.824846834696961 2.873451452966718 0 0 0
210 2 14.065760752382932 8.09715117369433 -0.18663583471621162 0 0 0
211 3 14.165728146104573 8.110528354372498 2.9219514382126124 0 0 0
418 4 16.907367346488023 3.292962304177896 7.9685362295023054 0 0 0
419 5 18.76814531260365 2.8839910079905793 6.312339980477587 0 0 0
420 6 18.76079700454451 2.8734433852316736 9.624580886698725 0 0 0
448 4 20.0055116314045 4.3182367768843575 7.977401473073014 0 0 0
451 4 17.538257494268276 6.550908472295952 7.982222191138432 0 0 0
452 5 19.395845690530606 6.136854813528588 6.327730081366756 0 0 0
453 6 19.393839793258707 6.133951096182746 9.639156296334669 0 0 0
455 5 16.92492975058918 8.365205868963626 6.326013431054682 0 0 0
456 6 16.928873112681778 8.373746940981952 9.637789913997622 0 0 0
481 4 20.630672113019706 7.579529951412588 7.985293113885677 0 0 0
484 4 18.162531666401236 9.813676864909608 7.97797473503087 0 0 0
485 5 20.016259750897877 9.392700292136137 6.3253443485864755 0 0 0
486 6 20.019342828113235 9.40308882943425 9.63686336248254 0 0 0
514 4 21.256685868831546 10.839441153113391 7.9745124361270125 0 0 0
203 1 16.56929434406181 4.023528638494382 1.3432232393979406 0 0 0
239 2 17.209552904432755 8.773876591434748 -0.27560640901476446 0 0 0
171 2 17.28366177345423 0.4560055751616858 -0.12916595106660672 0 0 0
172 3 17.332410709795074 0.5390545623048615 2.9802628475916886 0 0 0
235 1 17.593891355182258 6.991749633154586 1.266770752797599 0 0 0
200 1 18.67207606534483 1.7054779394995798 1.3656804406709198 0 0 0
204 2 18.278863048132852 3.437252442690701 -0.23587775622926804 0 0 0
205 3 18.333506542857908 3.524971964992898 2.8723527198213707 0 0 0
240 3 17.27703691846987 8.756480060293832 2.8333601916980538 0 0 0
236 2 19.311661282858044 6.4350924377941405 -0.3139961297810368 0 0 0
237 3 19.35205147185874 6.466120795195852 2.7950795185937474 0 0 0
232 1 19.684133457651424 4.676108039672575 1.2615813924684605 0 0 0
415 4 19.365420817983434 1.063613340744808 7.958146158713068 0 0 0
238 1 15.500504598476505 9.296282379308044 1.325864523361187 0 0 0
201 2 20.398485077835993 1.1045555288772597 -0.18880299830645828 0 0 0
202 3 20.416571080400104 1.211810226528718 2.919840787120884 0 0 0
263 1 20.71624318371474 7.640607971659637 1.2195381677534207 0 0 0
416 5 21.227946871759276 0.6575762588123077 6.30138850745502 0 0 0
417 6 21.217687938740774 0.6469829853190842 9.614446895128317 0 0 0
266 1 18.627817864372712 9.955408912165975 1.266872191227851 0 0 0
267 2 20.35853086223871 9.43921075579303 -0.3117729671981925 0 0 0
268 3 20.375513140484344 9.389356710585536 2.797170652535218 0 0 0
12 2 25.608439763869182 7.754900225405967 -0.2855141257359542 -1 0 0
13 3 25.538307087810388 7.729080800730956 2.8228208148327893 -1 0 0
449 5 21.86677756284204 3.912015352938357 6.32136516472515 0 0 0
450 6 21.860378359116662 3.900203174718044 9.633048180627965 0 0 0
11 1 23.836449981760502 8.286705451975765 1.2387206669399118 -1 0 0
9 2 27.711142477049965 5.423710130962099 -0.23097661387747012 -1 0 0
10 3 27.617969604442585 5.440953128308548 2.8771901507285267 -1 0 0
282 1 25.92510051908699 5.969239990789015 1.271972895276514 0 0 0
445 4 22.467797324025213 2.0883609961204583 7.96707782751044 0 0 0
483 6 22.487881969149697 7.1666542304963174 9.642375435429846 0 0 0
482 5 22.48879742803043 7.168017516354688 6.33104137945726 0 0 0
478 4 23.10043656875359 5.348992695190136 7.983596717756324 0 0 0
516 6 23.114707570032202 10.433314950275541 9.633808246879905 0 0 0
515 5 23.111569860008334 10.422703152738762 6.321965845877544 0 0 0
511 4 23.72484162496047 8.610098950492874 7.984969829885537 0 0 0
446 5 24.329152881657528 1.6812175490605077 6.309501787744721 0 0 0
447 6 24.319443639296416 1.6669920413894925 9.622166796013337 0 0 0
229 1 21.78067246534299 2.357064816643522 1.3131760304200977 0 0 0
230 2 23.529771833550036 1.7609267564774274 -0.21757640290816702 0 0 0
231 3 23.505396611499233 1.8655891465299297 2.8909030228413446 0 0 0
233 2 21.417081839291814 4.091897490296166 -0.29234166560516633 0 0 0
234 3 21.42300229612984 4.169013025548807 2.816329338055091 0 0 0
260 1 22.803179971937688 5.321497374667035 1.2347167160980201 0 0 0
261 2 24.56443985757844 4.752610768691082 -0.291246693883594 0 0 0
262 3 24.515502915986758 4.8029968387619215 2.8175106735092 0 0 0
264 2 22.461532850242435 7.094211489705295 -0.3328993302409696 0 0 0
265 3 22.44419473348119 7.096184666929979 2.776347436545482 0 0 0
475 4 25.56274965125069 3.1149322729323314 7.973998985413157 0 0 0
476 5 27.42134931246512 2.7037683788448157 6.3157333058205305 0 0 0
477 6 27.41261872522453 2.6866459064446353 9.628430898624549 0 0 0
479 5 24.960200585539017 4.9415279544451405 6.3268884201182765 0 0 0
480 6 24.95549217578141 4.929311978397274 9.638575534375985 0 0 0
505 4 28.651633341198952 4.137061307449741 7.978900964095821 0 0 0
508 4 26.192792985261715 6.3782375977497345 7.9860744836047575 0 0 0
509 5 28.05018693860454 5.965792592396976 6.329224647733827 0 0 0
510 6 28.04578888989875 5.953593929134487 9.641458697393654 0 0 0
512 5 25.582017235992193 8.197844739039377 6.330333008161661 0 0 0
513 6 25.581928467337466 8.197315131482501 9.642095231969865 0 0 0
197 1 23.891858542358545 0.04268842669576201 1.4045681573736146 0 1 0
257 1 24.898596320226947 3.006585164446133 1.3075110775117849 0 0 0
258 2 26.67229370919363 2.4313098474130608 -0.20188171380872166 0 0 0
259 3 26.60544727546197 2.510079123260367 2.906751878358651 0 0 0
256 1 27.012346432669496 0.703721370956991 1.4125428573429513 0 0 0
279 1 28.024447477920486 3.662941581979666 1.3539096139970912 0 0 0
227 2 28.791004246184322 0.14036665246344965 -0.09678585912743067 0 1 0
228 3 28.727937333911505 0.2197472391339239 3.0128514342682724 0 1 0
472 4 28.009011544064137 0.8705634336545898 7.962441158079873 0 0 0
16 3 23.46789744646472 10.024173931435648 2.8230856488086484 -1 0 0
15 2 23.502434928045293 10.096904421769892 -0.2851183181852272 -1 0 0
34 1 31.155433844798257 4.334933202586995 1.4402277627270843 -1 0 0
31 1 33.28305645263551 2.0591963603178467 1.5218232377092362 -1 0 0
32 2 35.07604360196135 1.5560162513986289 0.010087095616146638 -1 0 0
33 3 35.005113587007784 1.5606404997178416 3.1203283704306894 -1 0 0
281 3 29.72170370958817 3.1589884629776117 2.9665993052847397 0 0 0
280 2 29.81747541511862 3.117663666497786 -0.14211346871639766 0 0 0
506 5 30.506819554208903 3.718697955711817 6.320848346642882 0 0 0
507 6 30.498261428831967 3.6994513053818503 9.633997393234957 0 0 0
277 2 31.935464682777535 0.8422011191258963 -0.05120794021037822 0 0 0
278 3 31.85903140437487 0.8821345753593606 3.0588409529894665 0 0 0
502 4 31.09372552567636 1.8819657838654553 7.968243721760457 0 0 0
276 1 30.144432489514283 1.3736609819787642 1.454606631992877 0 0 0
504 6 32.934864599440864 1.4349491974502728 9.623882970160697 0 0 0
503 5 32.943830546687245 1.4539365483760613 6.309859488088791 0 0 0
529 4 36.59775895576395 0.6057422333529273 7.962733675622283 0 0 0
473 5 29.862815494652665 0.44836051179818287 6.304311300699282 0 0 0
474 6 29.852807248462668 0.43453922918694704 9.618194896670822 0 0 0
55 1 -21.232618968297704 20.485841875341926 1.606823522534822 0 0 0
26 1 -24.357223680974396 19.7762690107126 1.6044728976053915 0 0 0
299 5 -21.14998089122641 20.404764798808536 6.287186014269815 0 0 0
300 6 -21.14518748680265 20.39270696483449 9.601927755673515 0 0 0
23 1 -22.201361983251196 17.507893035669433 1.5448340043015063 0 0 0
27 2 -22.60744933356984 19.304395009926182 0.034310285801469616 0 0 0
28 3 -22.590148461871053 19.238945695806102 3.1450754642476073 0 0 0
298 4 -22.990557988368643 20.83957905803109 7.949649529495192 0 0 0
295 4 -20.570374332850538 18.574555715410018 7.938964961950465 0 0 0
24 2 -20.46473376868652 17.038874222060688 -0.03985371792212666 0 0 0
25 3 -20.432272857222202 16.941310575439246 3.0698731486454185 0 0 0
56 2 -19.49789295173367 19.996990201389618 0.027104150828926976 0 0 0
57 3 -19.462350581822523 19.945727074612755 3.1379707292122903 0 0 0
527 5 -24.241193353417433 19.41486137440345 6.2890857652575765 1 0 0
528 6 -24.235552886827413 19.406061639374176 9.603738325760325 1 0 0
83 1 -18.121964787561783 21.193176373349466 1.5824151487914249 0 0 0
114 2 -13.311535151335123 21.333689821005535 -0.060436767587888574 0 0 0
115 3 -13.251221661381898 21.372057024334115 3.049984571187705 0 0 0
287 5 -11.381361933608137 11.448185073562192 6.316409838066268 0 0 0
288 6 -11.378964952679882 11.457743978528507 9.629153214785351 0 0 0
85 3 -16.349431895326315 20.66085104935638 3.1067690839799176 0 0 0
84 2 -16.402702376243713 20.673077900618477 -0.004177630986407913 0 0 0
296 5 -18.726343870760225 18.145553548394506 6.2799434671552365 0 0 0
297 6 -18.72069932194228 18.14608174567714 9.594531335082287 0 0 0
329 5 -18.049258301435113 21.393040903560564 6.288448029815471 0 -1 0
330 6 -18.04717419475616 21.381122098313888 9.603019340174441 0 -1 0
325 4 -17.465464070897706 19.568297744542768 7.938270476558106 0 0 0
294 6 -16.285839334969836 15.91324093562566 9.599879269755212 0 0 0
293 5 -16.290879518837997 15.902664064115147 6.285861934349737 0 0 0
387 4 16.255933416623748 0.04616732929825086 7.948968137984801 0 0 0
21 2 -18.329315071686757 14.749408242384359 -0.13723989308596385 0 0 0
22 3 -18.301578304023693 14.634566742064635 2.9712782915325886 0 0 0
49 1 -16.95107618956705 15.899990524468361 1.4565438352386306 0 0 0
52 1 -19.085072811349335 18.20184935036959 1.5419689702540005 0 0 0
53 2 -17.354535465311507 17.712591484937967 -0.041578248942562845 0 0 0
54 3 -17.323105493901252 17.63061597131927 3.0686887468859263 0 0 0
319 4 -12.582811807204504 15.104956597368533 7.949360554112474 0 0 0
322 4 -15.028817334840339 17.330844653331905 7.938710587094189 0 0 0
323 5 -13.17475676538437 16.91573451060248 6.283958959993137 0 0 0
324 6 -13.174580690662042 16.922607176014083 9.59827566307906 0 0 0
326 5 -15.614941126772724 19.14756536650255 6.280255659136132 0 0 0
327 6 -15.614463362560432 19.14576786100831 9.594816915553531 0 0 0
352 4 -11.911061059199518 18.338142758259583 7.940176584854285 0 0 0
355 4 -14.353606128933972 20.56664664061024 7.941804475693267 0 0 0
356 5 -12.496885372631311 20.153220340202505 6.284819434063881 0 0 0
357 6 -12.50171278668785 20.149332007514648 9.5990452211627 0 0 0
80 1 -15.984407095421968 18.892004658284534 1.5303917104235243 0 0 0
50 2 -15.214059128706928 15.40782390210806 -0.11831088190618518 0 0 0
51 3 -15.206594098756954 15.306196742294292 2.9909538085994676 0 0 0
46 1 -14.83502020537236 13.583485659009703 1.3743112983308152 0 0 0
81 2 -14.259093264757205 18.370096262408424 -0.04837684651440267 0 0 0
82 3 -14.228840154998137 18.331403476548015 3.062805477794867 0 0 0
77 1 -13.855256433954152 16.574422223302648 1.4746473554445165 0 0 0
290 5 -13.841435312456559 13.673085163306412 6.3006122521869745 0 0 0
291 6 -13.837361123941557 13.686795539197737 9.61384866115603 0 0 0
47 2 -13.081946986867516 13.084774979240345 -0.17999945016679778 0 0 0
48 3 -13.112975492895487 12.984461097630696 2.9283566819540443 0 0 0
43 1 -12.734064600986054 11.260175298788015 1.3221839396213133 0 0 0
110 1 -12.893995090786136 19.574874018079615 1.5033943590887549 0 0 0
292 4 -18.139765779957063 16.325253727973745 7.940746830930577 0 0 0
289 4 -15.694277552602749 14.090552449330726 7.95340680502882 1 0 0
74 1 -11.737578644118571 14.24790101737248 1.4311911387182503 0 0 0
78 2 -12.11424328952351 16.054980921062324 -0.08633735069832359 0 0 0
79 3 -12.121775675765818 15.99425837005231 3.024303618012391 0 0 0
540 4 -13.236261694412644 11.86368351899153 7.969538476123425 1 0 0
167 1 -6.711005903701319 20.911394460030635 1.4262669730873605 0 0 0
343 4 -4.5761787620518595 11.64857895243481 7.976898451900341 0 0 0
140 1 -9.80565736294872 20.247709676878927 1.4645273422290221 0 0 0
169 3 -4.979363626648305 20.418513560808133 3.0002028433107943 0 0 0
168 2 -4.967300066677917 20.315005775319058 -0.10934640126419434 0 0 0
320 5 -10.727786725090294 14.690384204404875 6.295837298502338 0 0 0
321 6 -10.727077629652674 14.701309361660577 9.609906085192803 0 0 0
141 2 -8.074910206652222 19.66224432487016 -0.08844801754313958 0 0 0
142 3 -8.064900921826213 19.73426130157786 3.022139283667775 0 0 0
316 4 -10.12976446560134 12.881067145099191 7.964340134078061 0 0 0
353 5 -10.053012998911587 17.927115969316787 6.285062130200164 0 0 0
354 6 -10.057649227102115 17.93047868625475 9.599512161421714 0 0 0
386 6 -9.387929084656019 21.158917755986437 9.606156774110922 0 0 0
385 5 -9.379177647095906 21.16572526916973 6.292485508950979 0 0 0
349 4 -9.466325345805034 16.115616500930567 7.947330592598241 0 0 0
382 4 -8.793073569149428 19.34893298653468 7.94436420443818 0 0 0
317 5 -8.275569768596352 12.461730486281104 6.311007401900086 0 0 0
318 6 -8.275672930846644 12.471402696038675 9.624916613591042 0 0 0
44 2 -10.961085850175596 10.75206919294252 -0.20586435248625048 0 0 0
45 3 -11.032723262586412 10.674432906584892 2.9018819330892534 0 0 0
71 1 -9.629904910279963 11.922697085375045 1.414675039488595 0 0 0
72 2 -7.848452503469091 11.412831668947755 -0.10051862628624057 0 0 0
73 3 -7.932257076471247 11.351598262133969 3.0078243741239477 0 0 0
75 2 -9.975642720137039 13.733264469005798 -0.10621790338495736 0 0 0
76 3 -10.025440170605663 13.664039743298764 3.003244600546422 0 0 0
104 1 -8.646207609724245 14.920083454253632 1.4957965691220074 0 0 0
107 1 -10.768151749338784 17.24811503119485 1.4925623067302007 0 0 0
108 2 -9.023295881532656 16.700042387172648 -0.054726350172990865 0 0 0
109 3 -9.040063996342878 16.69549347857299 3.05670019026968 0 0 0
111 2 -11.169424164058436 19.01711551830373 -0.06503277844111928 0 0 0
112 3 -11.145261342038559 19.03605046052855 3.046387150234103 0 0 0
346 4 -7.020971678223301 13.888610352209204 7.96062712250026 0 0 0
347 5 -5.1685879571264906 13.460613465545396 6.307645669533936 0 0 0
348 6 -5.171612426869628 13.472705399925443 9.622432349499404 0 0 0
350 5 -7.610326470812995 15.699095428036385 6.293170505840528 0 0 0
351 6 -7.613640454018925 15.70841664397883 9.607866195147594 0 0 0
376 4 -3.915136583545322 14.887209375526751 7.958802733951291 0 0 0
379 4 -6.351345421342102 17.123134384409074 7.9474042806949505 0 0 0
380 5 -4.495992678465027 16.70106236575777 6.292761670728926 0 0 0
381 6 -4.502672538613492 16.709376056544 9.607787029183571 0 0 0
383 5 -6.933132791275154 18.93828958413984 6.28848759346414 0 0 0
384 6 -6.941528673169655 18.93807523409222 9.602904463021906 0 0 0
409 4 -3.243847041630735 18.12909846991469 7.94925821377019 0 0 0
412 4 -5.681225286200426 20.36376841305887 7.950166113346773 0 0 0
413 5 -3.8217036698607862 19.95056998784741 6.2934096081656685 0 0 0
414 6 -3.8321453056749197 19.946371963914146 9.607634742826928 0 0 0
137 1 -7.680975797486938 17.921279976362868 1.5028071096410804 0 0 0
101 1 -6.528560693670317 12.60125633662344 1.5134816174042311 0 0 0
105 2 -6.881325386249489 14.388691245776245 -0.03240044584507966 0 0 0
106 3 -6.932199054093434 14.365779642569686 3.0781002797597283 0 0 0
138 2 -5.931351214508571 17.35266273237702 -0.03310241138508716 0 0 0
139 3 -5.953127317659142 17.40081919760688 3.0780172397669445 0 0 0
134 1 -5.552369055884367 15.601385981843006 1.5480831054534654 0 0 0
102 2 -4.749214927130997 12.087452657101444 -0.0027246283403743847 0 0 0
103 3 -4.8187324542541745 12.057825536986908 3.106790832481677 0 0 0
164 1 -4.584923064910806 18.594216578734514 1.5047648673007372 0 0 0
135 2 -3.7887564728216367 15.05875356639808 0.02054066839592405 0 0 0
136 3 -3.8271714319052155 15.08060840617599 3.1314683174176055 0 0 0
131 1 -3.4226460671759997 13.296251737918846 1.5890704740772874 0 0 0
345 6 -2.731161473914669 11.217740914864018 9.63933070753495 0 0 0
344 5 -2.727691367466413 11.208104988813364 6.324724539613963 0 0 0
198 2 -1.8432386848207574 20.98266638980074 -0.1155372818648427 0 0 0
199 3 -1.881842078688634 21.087651222167498 2.993702538967578 0 0 0
400 4 4.032648659668158 11.344238475019171 7.987093309967012 0 0 0
444 4 -2.5792134641739266 21.381306602173236 7.95646582828178 0 -1 0
224 1 1.6526919110527236 19.94509370518925 1.5138259697158805 0 0 0
378 6 -2.070295675015699 14.464340503305902 9.621140547742797 0 0 0
225 2 3.4272187989156717 19.406136687237876 -0.010786675025979638 0 0 0
377 5 -2.0658683689985144 14.449168780812581 6.3059347390942255 0 0 0
373 4 -1.4818088148520887 12.635845407186178 7.97589198086532 0 0 0
410 5 -1.390767649201711 17.700743018769778 6.293999331477774 0 0 0
411 6 -1.3990109606481798 17.707075877119 9.609055080580507 0 0 0
442 5 -0.722001815458931 20.964050015435134 6.29889415133304 0 0 0
406 4 -0.8167816799124348 15.881051800512115 7.957970874811384 0 0 0
443 6 -0.7327125538354166 20.955307032597695 9.612874453718065 0 0 0
439 4 -0.1468994959333344 19.1349659650436 7.952156286733139 0 0 0
128 1 -1.2937692373163934 11.009062010246334 1.6195929275206848 0 0 0
132 2 -1.6526896953857373 12.779291546949096 0.06067182957594299 0 0 0
133 3 -1.6906304777701013 12.78281161675661 3.1711211090656044 0 0 0
158 1 -0.3058799162736163 14.001661605363916 1.6252437557904835 0 0 0
161 1 -2.447941436641724 16.289596532504245 1.5768791966489748 0 0 0
162 2 -0.6865836096550674 15.745940485076497 0.043858682685870384 0 0 0
163 3 -0.7080145405598759 15.794913517344122 3.1548291113701525 0 0 0
165 2 -2.828590182346816 18.019902613799303 -0.023626793602229187 0 0 0
166 3 -2.854504755530747 18.09992824056971 3.0868732519270954 0 0 0
194 1 -1.4741228485296922 19.267985526108948 1.5049792324429299 0 0 0
374 5 0.36154866607996283 12.18381787032918 6.323386858212128 0 0 0
375 6 0.3604181900594933 12.200124054836348 9.638357680464043 0 0 0
403 4 1.606341409811113 13.618190728119375 7.973199615555462 0 0 0
404 5 3.4447430635545966 13.159817274387647 6.31884964905912 0 0 0
405 6 3.4479906868978856 13.17981874756452 9.633878992882227 0 0 0
407 5 1.0285081875353954 15.43535297984255 6.304274449836499 0 0 0
408 6 1.0249875463399718 15.451364030597876 9.619525723712988 0 0 0
433 4 4.687874644776983 14.602452326750562 7.967644797200769 0 0 0
436 4 2.2723732643729573 16.874469807322818 7.956989079076708 0 0 0
437 5 4.113719504828658 16.42572354097969 6.301617689655127 0 0 0
438 6 4.112874003653315 16.438501118543538 9.616604539478693 0 0 0
440 5 1.7028661387256703 18.701701772278483 6.2960576652267175 0 0 0
441 6 1.6950276699368783 18.70373114267432 9.610850355322947 0 0 0
469 4 2.940233058514971 20.14006384557327 7.95544703200131 0 0 0
470 5 4.7863952387418145 19.703998283900834 6.298107138599893 0 0 0
471 6 4.780379259299421 19.699287577735895 9.612646761811522 0 0 0