LAMMPS data file via write_data, version 27 Jun 2024, timestep = 80000, units = metal

540 atoms
6 atom types

0 37.59365801343109 xlo xhi
0 21.52779524830364 ylo yhi
-0.4845437352179918 9.774906907740581 zlo zhi
-27.49615054720427 0 0 xy xz yz

Masses

1 95.95
2 32.06
3 32.06
4 95.95
5 78.971
6 78.971

Atoms # atomic

455 5 -13.313582637912626 10.48419299601467 6.310404536632991 1 1 0
456 6 -13.291580222956286 10.450766032736432 9.601561676240133 1 1 0
170 1 -10.208940496098997 9.742213886718263 1.2373466842603311 0 -2 0
479 5 -5.277649519205134 7.026593983115534 6.118127836027092 1 1 0
480 6 -5.333412915359453 6.991549288717273 9.51358883011873 1 1 0
478 4 -7.150441829875224 7.487019021877059 7.872446427141619 1 1 0
202 3 -5.394412133828207 9.896411654442925 2.849796643188154 0 -2 0
201 2 -5.298553943154446 9.837135030438752 -0.2871410357396954 0 -2 0
169 3 -3.3091842870888435 7.6458848059184925 2.9829002697616116 0 -1 0
475 4 -4.739076420096028 5.204664611074753 7.844549105086513 1 1 0
167 1 -4.973357282657352 8.098211189881532 1.3410117509335744 0 -1 0
481 4 -9.57706295127395 9.699232623422384 7.906552498017929 1 1 0
483 6 -7.752839351740754 9.197448428148634 9.556823236479755 1 1 0
482 5 -7.735922509380714 9.32586496711634 6.235596487223595 1 1 0
171 2 -8.484207980339113 9.126407300700647 -0.2490707223737054 0 -2 0
172 3 -8.447206160838343 9.28016766742024 2.7966393639869085 0 -2 0
141 2 -6.322923907004771 6.865338177445368 -0.173971424743736 0 -1 0
142 3 -6.383173481829767 6.957373053322163 2.9051201386914505 0 -1 0
513 6 -4.648545916128787 10.284550819509866 9.524825568718686 1 1 0
508 4 -4.041688690578436 8.432799379156336 7.874350575641539 1 1 0
140 1 -8.117751402925048 7.43638147162912 1.3510019585684288 0 -1 0
139 3 -4.2592092201336085 4.666130010457219 3.0491930116081614 0 -1 0
138 2 -4.185853444557937 4.555593042651088 -0.06930565812873486 0 -1 0
512 5 -4.666993558078473 10.289957606185848 6.257337741656379 1 1 0
168 2 -3.118504594949605 7.558333291786171 -0.13914670082789507 0 -1 0
200 1 -7.077191292978579 10.421614684799316 1.1967381288035455 0 -2 0
137 1 -5.969411993391069 5.156158089260999 1.4162205038946774 0 -1 0
511 4 -6.487872212425032 10.64358288693644 7.921141412705337 1 1 0
164 1 -2.830505732501621 5.899800546652204 1.5104164764950097 0 -1 0
197 1 -1.8383574171613282 8.827762728729061 1.4378953043943006 0 -1 0
165 2 -0.9732786635178611 5.305597112901501 -0.007343856041195961 0 -1 0
166 3 -1.111496074578559 5.407681358704234 3.1374270492332768 0 -1 0
256 1 1.296810756750838 9.504652859065494 1.5809270485581703 0 -2 0
227 2 3.07320320439752 8.911736536846954 0.06593920974282681 0 -1 0
228 3 3.032051422762798 9.010021896575612 3.19199400234889 0 -1 0
276 1 4.438693799746362 10.144641484508163 1.6429585985228177 0 -2 0
476 5 -2.8255969428909586 4.825413656257838 6.214984557742319 1 1 0
477 6 -2.9745558110374843 4.793168381869202 9.540523403768145 1 1 0
505 4 -1.6457343264093438 6.197889242200225 7.834035739188703 1 1 0
472 4 -2.3153124771412106 2.9910784705026088 7.918046480818421 1 1 0
473 5 -0.4648061644140376 2.4928432247544623 6.298408245510624 1 1 0
474 6 -0.49582885535965987 2.5930673757365934 9.589350435017607 1 1 0
506 5 0.21023707475670186 5.773371323066258 6.242846729185622 1 1 0
507 6 0.21169682549974572 5.782570077291248 9.562430679163166 1 1 0
502 4 0.8211890980217943 3.948138839267388 7.936186057821756 1 1 0
469 4 0.046334846056498735 0.7472011083594687 7.9767350091088005 1 2 0
224 1 3.471830754080444 7.216056046317166 1.6531708275431929 0 -1 0
535 4 1.4654338208563074 7.196178856244993 7.9294061522863695 1 1 0
504 6 2.621661854441237 3.551036528554753 9.64221000269027 1 1 0
503 5 2.690760538350007 3.5424749017875685 6.297920156270487 1 1 0
470 5 1.931117435019404 0.2772368379711383 6.34958633710755 1 2 0
198 2 0.01906458194618965 8.247751085589805 -0.023169843946135863 0 -1 0
199 3 -0.1633165354258646 8.267202662697095 3.0457827553629198 0 -1 0
196 3 2.058475485811547 6.0565942468458775 3.2521565574832283 0 -1 0
195 2 2.206963460027483 6.037622443087405 0.10524845061841524 0 -1 0
194 1 0.3461311486896981 6.498369078724982 1.6072569635596925 0 -1 0
192 2 4.209997837964604 3.7657937466532374 0.19384982547443075 0 -1 0
193 3 4.275715609777347 3.764908976727332 3.274399344530748 0 -1 0
509 5 -2.1231726482322517 8.055537561779506 6.208413426267661 1 1 0
510 6 -2.2149562164523133 7.998015183614335 9.496917610426728 1 1 0
191 1 2.5174143130946782 4.257256007409311 1.7171705809967366 0 -1 0
536 5 3.3654228063669342 6.748163274762669 6.316478535496914 1 1 0
537 6 3.311762760030394 6.802487687722799 9.664498426579785 1 1 0
499 4 3.18099210999334 1.7364995496592226 8.045261160775715 1 2 0
161 1 -0.6374272057972639 3.574581077231701 1.5923135688951136 0 -1 0
162 2 1.1824237381752702 3.1024868293844667 0.10051925278287749 0 -1 0
163 3 1.1075381384112224 3.02867302828654 3.218785321360686 0 -1 0
188 1 4.672068936372772 1.9932756020100753 1.7359456096760186 0 -1 0
538 4 -0.9543943052943151 9.43696309080789 7.88431259075273 1 1 0
283 5 0.9557016820446497 8.980402431458044 6.282870371455049 0 1 0
284 6 0.8343783794544702 9.004319184284432 9.56928962576423 0 1 0
158 1 1.5069984228887834 1.2954553901723442 1.6404407871308417 0 -1 0
532 4 3.8980030804526886 4.943662887803834 8.009162467218873 1 1 0
312 6 3.9478336068413693 10.01190947614132 9.623900525626297 0 1 0
311 5 4.021077240786216 10.007417365823567 6.33229046522201 0 1 0
307 4 4.565054953988027 8.204426070120345 7.965030824303602 0 1 0
159 2 3.3131660671583725 0.8004512009774294 0.1428112747376777 0 -1 0
310 4 2.134055128984993 10.461791321942858 7.9327329610353505 0 1 0
136 3 -2.068734134066261 2.3616669938763524 3.107570796438787 0 -1 0
160 3 3.265061348299949 0.8204330612180972 3.2339470370142624 0 -1 0
471 6 1.9058253406006673 0.2524925532357923 9.656221544831885 1 2 0
230 2 -2.148287545476545 10.55425682852714 -0.23935455804255062 0 -2 0
231 3 -2.261897183681015 10.600600755643022 2.9562229088800214 0 -2 0
135 2 -1.990297472191503 2.3786550852107227 0.06566575419073639 0 -1 0
133 3 0.09143444045175975 0.16401859641764488 3.171831978764386 0 -1 0
225 2 5.279724451878575 6.621257567177937 0.17090611217854104 0 -1 0
226 3 5.216002353071152 6.686659518903987 3.2802005600124975 0 -1 0
500 5 5.0736519755976675 1.235647124924903 6.381408336381032 1 2 0
501 6 4.990475670319106 1.3461126494851303 9.737167314560493 1 2 0
277 2 6.224808248739793 9.648946428990508 0.06598486174685188 0 -2 0
278 3 6.166556742686913 9.698374953529292 3.2245646897393194 0 -2 0
221 1 5.683200496955977 4.934688998441654 1.6958256597733157 0 -1 0
253 1 6.565121635163729 7.899015505969869 1.7120230143021877 0 -1 0
189 2 6.441191391212451 1.563891213103793 0.10997913638585537 0 -1 0
190 3 6.491148376057864 1.5284519452741046 3.246180121210867 0 -1 0
223 3 7.498401018021658 4.501206201278206 3.2446574482774073 0 -1 0
222 2 7.410960009427806 4.466468047478626 0.13791540007503403 0 -1 0
250 1 8.806725691316895 5.7078430369740225 1.6750051712007537 0 -1 0
254 2 8.33544433816576 7.446871702160492 0.1576966277673678 0 -1 0
255 3 8.441063233587297 7.511598948088973 3.206013599370016 0 -1 0
6 1 9.715299366616144 8.69473371158218 1.669598050680174 -1 -1 0
33 3 9.35515793071975 10.426094473791116 3.186339705160681 -1 -2 0
32 2 9.364033171238264 10.476846805034215 0.07139952092847755 -1 -2 0
251 2 10.561820201775499 5.198716317474548 0.11274198459459048 0 -1 0
3 1 11.933916968808846 6.427743577772855 1.6775360008221956 -1 -1 0
7 2 11.473714068157582 8.192400080930055 0.06740171784594458 -1 -1 0
8 3 11.476364057687556 8.205202860363215 3.254622932245555 -1 -1 0
58 1 12.874241410273335 9.438665252520215 1.6607619113850411 -1 -2 0
533 5 5.733256514911366 4.41894147133997 6.3944172176575504 1 1 0
534 6 5.793234822976229 4.481852400506229 9.701662022384397 1 1 0
529 4 6.318896099317321 2.647474876814268 8.060882946206743 1 1 0
304 4 7.012471382565915 5.905575177777087 8.031798393892362 0 1 0
306 6 8.847511861464866 5.394913022539453 9.720790951806592 0 1 0
305 5 8.835492630693397 5.442134766127542 6.410645274376845 0 1 0
531 6 8.152492599629985 2.165894390652541 9.69754690972354 1 1 0
530 5 8.180481224400323 2.2535335997018144 6.405057584126858 1 1 0
526 4 8.774734142609272 0.4017012429608875 8.047201411850908 1 2 0
301 4 9.366408151082654 3.579835520051359 8.030946487534466 0 1 0
334 4 10.067002024145422 6.801663032789284 8.038621734335877 0 1 0
252 3 10.593258815398835 5.166744626982587 3.210690013654102 0 -1 0
308 5 6.397829816810402 7.6932184327426425 6.337915288434917 0 1 0
309 6 6.380818230015717 7.744528869125936 9.632495181633463 0 1 0
303 6 11.27401198144455 3.1942436248802153 9.668322461208792 0 1 0
247 1 10.948452584114515 3.41039186731886 1.644478770979798 0 -1 0
339 6 9.476588500038506 8.603619535209617 9.699010837806021 0 1 0
338 5 9.556479349176069 8.663085845815822 6.3796251205160885 0 1 0
302 5 11.282780921168477 3.178747506896798 6.4059410641479415 0 1 0
220 3 9.554949943098837 2.1475170953195675 3.1902866113859973 0 -1 0
219 2 9.552201660118845 2.326526930699356 0.06830816044881279 0 -1 0
218 1 7.835223517632931 2.7224782637852694 1.6597702333181683 0 -1 0
248 2 12.674590496779603 2.953383387950973 0.040418490226307814 0 -1 0
249 3 12.705592206995119 2.941193333451313 3.1967575715923693 0 -1 0
337 4 7.645681994250526 9.120489317105681 7.986430722254509 0 1 0
298 4 11.867284624746226 1.3637348754499687 8.034325952636992 0 2 0
367 4 10.762198391113033 10.06156477340186 8.114501829046203 0 1 0
335 5 11.953671528646687 6.3680756985318085 6.403678576181589 0 1 0
336 6 11.926799953035783 6.3840637494538734 9.7137730241789 0 1 0
331 4 12.603698945259422 4.591607059740184 8.036740899681865 0 1 0
368 5 12.561740365672184 9.679536235171085 6.362329562207478 0 1 0
369 6 12.608405472837031 9.637371851982463 9.705274455777674 0 1 0
244 1 13.092680947540847 1.1978829536980766 1.5047510649286637 0 -1 0
527 5 -16.91954128494003 21.522074223629247 6.388203476924148 1 1 0
215 1 9.886500292879655 0.47153419091215865 1.5363179915611809 0 -1 0
4 2 13.667087057211518 5.948312371742846 0.09937412135328122 -1 -1 0
5 3 13.740101157384245 5.949349970391879 3.264794692815036 -1 -1 0
364 4 13.194818930885411 7.841793575118343 8.048060455869203 0 1 0
275 1 14.026143757749761 4.163073771308289 1.63870991103694 0 -1 0
26 1 15.00886769807644 7.1477407861 1.6026830518460022 -1 -1 0
30 3 14.714401812000089 8.960567056219446 3.167157059367514 -1 -1 0
29 2 14.615067973020983 8.943578114113505 0.06731286475701186 -1 -1 0
2 3 15.809713730319144 3.5613433951706273 3.1485436900587604 -1 -1 0
86 1 15.994443123225954 10.138840944946791 1.542096612177732 -1 -2 0
1 2 15.705113239853262 3.649572654764367 0.04497481813728752 -1 -1 0
28 3 16.760875387036506 6.601549701943808 3.1219290090587672 -1 -1 0
27 2 16.655593282283824 6.5439445658942805 0.004682485595353563 -1 -1 0
87 2 17.66805652711037 9.512567693330368 -0.072001849276459 -1 -2 0
88 3 17.774480482874864 9.606043099746321 3.0034452981335074 -1 -2 0
55 1 18.069120390135335 7.802550544049992 1.4590593140614034 -1 -1 0
52 1 20.17278691230619 5.482404229898177 1.500590871660064 -1 -1 0
57 3 19.85648544079924 7.299713908786068 2.9824752427593944 -1 -1 0
56 2 19.830201652836255 7.194606268687823 -0.10687838203947977 -1 -1 0
117 2 20.755358078010655 10.243020912879565 -0.16756941335959913 -1 -2 0
83 1 21.176692456522993 8.478065792011073 1.336130575621644 -1 -1 0
118 3 20.84404622699705 10.230108287569383 2.9108610758586937 -1 -2 0
299 5 13.722800895309552 0.9721697155237451 6.362720769761837 0 2 0
333 6 14.422872737408364 4.16953833073527 9.676883154753076 0 1 0
332 5 14.391804430249836 4.116613094614157 6.385048300763521 0 1 0
328 4 15.020978382633686 2.308711171855945 8.012319201171328 0 1 0
300 6 13.744370344415234 0.9601422358824948 9.675012665042873 0 2 0
361 4 15.658446864625125 5.566454918246303 7.9661638417985925 0 1 0
329 5 16.80111918627373 1.915880680250666 6.325596683834903 0 1 0
330 6 16.874256348583277 1.947390375318056 9.610374580489665 0 1 0
363 6 17.542359563789603 5.115694076298615 9.607206318971995 0 1 0
362 5 17.428032950033174 5.18547008301854 6.286510968985352 0 1 0
358 4 18.10991912764628 3.3556026860267725 7.9383381452124855 0 1 0
391 4 18.748946948151783 6.639019744446188 7.92786764707603 0 1 0
23 1 17.120351194950924 4.799380242809932 1.553703931617204 -1 -1 0
365 5 14.982254598070604 7.409497227846091 6.305613052583506 0 1 0
366 6 15.036322161855527 7.391719678610841 9.6504520562585 0 1 0
24 2 18.79503269271292 4.202560373160987 -0.06305104043852945 -1 -1 0
25 3 18.912662143490305 4.199382763548717 3.0586392838284095 -1 -1 0
396 6 18.077497604615964 8.431713300790905 9.657526058660038 0 1 0
395 5 18.101515631415214 8.475208431087308 6.332106321335521 0 1 0
272 1 16.136063617749837 1.8296352608432145 1.518715856163019 0 -1 0
20 1 19.266363744683854 2.4341584178217586 1.4766190097238652 -1 -1 0
21 2 20.986219004562564 1.9468115752737805 -0.17960179245284372 -1 -1 0
22 3 21.08374386344205 1.8100380331123922 2.9803461044135977 -1 -1 0
394 4 16.26210860351756 8.884981479353163 7.951976372054691 0 1 0
359 5 19.840629391914216 2.818870869138584 6.2840955045810105 0 1 0
360 6 19.94791003463532 2.9501732802803655 9.558723746521297 0 1 0
273 2 17.810407531719783 1.330803441634496 -0.05622387574603418 0 -1 0
274 3 17.8870696523612 1.1753712264976088 2.9697380234322406 0 -1 0
424 4 19.304602773041005 9.879177393835167 8.002870689505865 0 1 0
392 5 20.462444896567355 6.106257156578368 6.203482154545045 0 1 0
355 4 20.45394989260978 1.1018704624430138 7.953145979893998 0 2 0
393 6 20.60895939802807 6.1642143304798624 9.54958401312062 0 1 0
214 3 14.820652920643933 0.5712824088595456 3.0549150750608214 0 -1 0
325 4 17.404026869182797 0.08727536182030615 7.958904300705079 0 2 0
245 2 14.716875572892548 0.6945922116874931 -0.07693649691763915 0 -1 0
246 3 14.828839431381033 0.5251816105310375 3.0134981078536707 0 -1 0
17 1 21.43861902695358 0.0932843195672382 1.360537837543433 -1 -1 0
399 6 15.626756828381675 10.66901648630414 9.721444348983855 0 1 0
398 5 15.596134095198765 10.68335856608487 6.341492195948924 0 1 0
452 5 26.731346453815473 8.280673793999313 6.251336543619158 0 1 0
453 6 26.788300783104635 8.258291813645908 9.55377587598231 0 1 0
54 3 21.964069351434997 4.914310766430037 2.9865999746656007 -1 -1 0
388 4 21.13264241080191 4.342776266958316 7.876531978128261 0 1 0
425 5 21.09572911425349 9.4272971529627 6.291507506322004 0 1 0
426 6 21.14700444928178 9.390665017046251 9.612536103787729 0 1 0
115 3 26.02353285457619 8.615539675400221 2.8845244518066213 -1 -1 0
450 6 29.18274542880348 6.046533775848417 9.556695420970929 0 1 0
53 2 21.813235305977262 4.9463771104869725 -0.11908187693795329 -1 -1 0
49 1 22.26587600380947 3.1079731490943963 1.3800105622460395 -1 -1 0
84 2 22.842649643761117 7.84487001468415 -0.2030426299658747 -1 -1 0
85 3 22.859820054896275 7.968436807067549 2.9162529753756026 -1 -1 0
451 4 24.875724778700107 8.67409613140486 7.912942158686147 0 1 0
448 4 27.32646777985168 6.4605282555182715 7.866506608600028 0 1 0
80 1 23.27908216180788 6.157093988681568 1.4083366151443208 -1 -1 0
422 5 23.594404050042534 7.21664434552929 6.266541630150075 0 1 0
423 6 23.633859815185563 7.187731564008942 9.53818165910947 0 1 0
420 6 26.07673555348489 5.027568147245996 9.565703990322886 0 1 0
419 5 26.050996572300743 5.01494158128427 6.273035463859762 0 1 0
418 4 24.233586461181357 5.396810166797839 7.920714699891201 0 1 0
113 1 24.29015724670409 9.10933859714455 1.3247021413309774 -1 -1 0
415 4 26.673697906713805 3.2013440115387275 7.92166615422536 0 1 0
82 3 24.99282883437961 5.674760248263298 2.966028196102781 -1 -1 0
81 2 24.914316959881102 5.530418352665462 -0.15984283926078074 -1 -1 0
114 2 25.97447051279519 8.46060412317993 -0.23914242745026384 -1 -1 0
110 1 26.366474937256548 6.754454734820918 1.3703900008903656 -1 -1 0
111 2 28.1222636275691 6.161513277042153 -0.14734249495135945 -1 -1 0
112 3 28.137659998285905 6.356712485631773 2.9916773457005803 -1 -1 0
389 5 23.003907003764994 3.8803527878343878 6.280158385883201 0 1 0
390 6 22.991337198180624 3.996990058183053 9.583707376406766 0 1 0
356 5 22.291403653438923 0.7120871953738208 6.231830290936456 0 2 0
357 6 22.318991853819306 0.725981130105964 9.594505839595056 0 2 0
387 4 23.576618308430156 2.1158340332523107 7.950992803308109 0 1 0
385 5 25.42730561976023 1.7133565166432345 6.301277731475074 0 2 0
386 6 25.429453911379827 1.7147092262418655 9.586984182224136 0 2 0
77 1 25.371383436823177 3.8524842752766415 1.442012960881634 -1 -1 0
78 2 27.154694491082427 3.249492243491489 -0.09885698068808427 -1 -1 0
107 1 28.48161765167501 4.47719370442302 1.5063053393052257 -1 -1 0
421 4 21.78044736153829 7.590047709424358 7.903186177424166 0 1 0
79 3 27.09554049302762 3.3268650090703837 3.0728440435658158 -1 -1 0
51 3 23.94189283293834 2.579916122887458 2.9725846924093977 -1 -1 0
50 2 24.121932346982664 2.536523652296531 -0.15065667879487013 -1 -1 0
74 1 27.47472672122118 1.4772648593984354 1.4878427005008024 -1 -1 0
46 1 24.352895508585398 0.8047403743193978 1.4257251371836202 -1 -1 0
75 2 29.27212903381264 0.930319442560324 0.0038299197837267473 -1 -1 0
416 5 28.546017758243618 2.772274861141407 6.218243894350174 0 1 0
417 6 28.52346890351495 2.7984662512458764 9.583963818431531 0 1 0
412 4 29.06110147895856 0.9897369519089902 7.913805279235638 0 2 0
76 3 29.249110374565443 0.9753473971385767 3.0581172072646257 -1 -1 0
449 5 29.122884113261595 6.039937151288994 6.201935421429868 0 1 0
47 2 26.18444369753311 0.2214186941631781 -0.11970507583067995 -1 -1 0
48 3 26.160929763501237 0.2518329999761034 3.0385585774701944 -1 -1 0
134 1 33.77544954155901 2.828640731544347 1.573785084772457 -1 -1 0
447 6 31.60491741799489 3.769127721579475 9.603547397815953 0 1 0
446 5 31.540122341593605 3.7786865851748845 6.226831598879597 0 1 0
108 2 30.21608779300581 3.891217228762863 -0.04943430462810791 -1 -1 0
109 3 30.263029363826583 3.982223222659414 3.0647351219498398 -1 -1 0
104 1 30.652605877824346 2.141753807702291 1.562626990886279 -1 -1 0
445 4 29.737836942911855 4.200848754615605 7.926320982320757 0 1 0
442 5 33.97300157934529 1.5615966120083564 6.244325885991789 0 2 0
443 6 34.04864422297117 1.5429197862727984 9.596203968143579 0 2 0
444 4 32.15643189508631 1.9489727016290812 7.899154150012438 0 1 0
414 6 30.89943716716938 0.5377396294626295 9.593432480838691 0 2 0
413 5 30.942549041047158 0.424639259140533 6.300779649341344 0 2 0
106 3 32.38862748316124 1.6483926143783216 3.1389772204667485 -1 -1 0
105 2 32.37999255107861 1.6853711851825455 0.019628425843460657 -1 -1 0
131 1 35.98750304998028 0.6226522122823935 1.5990637841420239 -1 -1 0
132 2 0.21617228115562445 0.04473053920539544 0.07643176182506657 0 -1 0
185 1 -20.62774567107484 21.32016092504986 1.6229822315780127 0 -2 0
496 4 -21.85790460657909 20.98371652771658 8.056185563976651 1 1 0
466 4 -24.941746700118998 19.972539356664168 8.063189801162522 1 1 0
468 6 -23.14514901593859 19.541817619390965 9.704921215829593 1 1 0
467 5 -23.070199672407906 19.528069587090563 6.413357990272496 1 1 0
155 1 -23.83877750993742 20.58065428171689 1.7079512253524878 0 -2 0
156 2 -22.100157995700872 20.131974172869985 0.0938823557258112 0 -2 0
157 3 -21.981167264649198 20.034949725061164 3.164760704812373 0 -2 0
153 2 -20.01589973130537 17.881030390684895 -0.10276566672122128 0 -2 0
154 3 -19.825543754727743 17.797160679728808 3.0383937679918835 0 -2 0
464 5 -20.6875425828786 17.232006413862873 6.376404825393356 1 1 0
465 6 -20.669389829259952 17.22974857841248 9.669392555207681 1 1 0
497 5 -19.980616854905783 20.57018665437824 6.444472659980122 1 1 0
498 6 -20.03697909848147 20.518739246079036 9.73480452171661 1 1 0
152 1 -21.69412437217107 18.283216453552154 1.6000487039859488 0 -2 0
463 4 -22.55665690380438 17.694666497851475 8.041639396154961 1 1 0
149 1 -19.548204394239473 16.077331024209002 1.4555480804224987 0 -2 0
528 6 -16.86656508185824 21.478269392850972 9.702002683305825 1 1 0
187 3 -18.85893050632619 20.70591672114572 3.0813124933640674 0 -2 0
186 2 -18.956332134295106 20.88226865719611 -0.0576040831000507 0 -2 0
493 4 -19.402364220268776 18.697053616864913 8.051595074625395 1 1 0
216 2 11.679502354857599 0.05644093468895161 -0.10644084537637366 0 -1 0
217 3 -15.736432670048654 21.434145781339303 2.987934162047489 0 -2 0
182 1 -18.583951002800482 19.02855045895284 1.4329962666005294 0 -2 0
295 4 -13.25965669329589 20.65255156678962 7.9720766228638835 0 1 0
173 1 -12.26418865363112 12.117470993516324 1.122442045648393 0 -2 0
523 4 -16.29820439981562 19.61612560578049 8.018598852603619 1 1 0
177 2 -12.708293278410604 13.886746105875254 -0.4241903735569664 0 -2 0
178 3 -12.546125298559721 13.955990948582144 2.7172154140501967 0 -2 0
525 6 -14.467904117246103 19.22953596412175 9.671731264236218 1 1 0
524 5 -14.429800110458894 19.212307590217794 6.384449875288038 1 1 0
495 6 -17.557200839112454 18.22644828912018 9.684058870088935 1 1 0
494 5 -17.60267991079725 18.24659262713773 6.353345622902864 1 1 0
241 1 -12.335076017694597 20.40186518539921 1.3339803286994674 0 -2 0
462 6 -18.247001184865212 14.906668511913464 9.62821911689004 1 1 0
461 5 -18.258298089205496 15.007325669960464 6.350321531114954 1 1 0
490 4 -16.96051847802378 16.40282505815802 8.019797166929965 1 1 0
458 5 -15.744696477063451 12.76386678442691 6.305766358195028 1 1 0
491 5 -15.117098223809037 15.974800686926846 6.343494750932452 1 1 0
492 6 -15.144602618992582 15.928144749286515 9.625426492020022 1 1 0
213 2 -13.752479474907569 19.230800742595505 -0.2196352491914816 0 -2 0
487 4 -14.54772282833595 14.098071580757512 8.001023646507223 1 1 0
520 4 -13.838172875415442 17.396592390967985 8.03731822404358 1 1 0
210 2 -11.602024637301353 16.897839383878864 -0.42541551557245094 0 -2 0
212 1 -15.409213763915748 19.739966569108578 1.3646971666163528 0 -2 0
209 1 -13.289756760817337 17.40509417393968 1.2264104661673958 0 -2 0
211 3 -11.561581288141472 16.824405208590015 2.694168425772337 0 -2 0
184 3 -16.80777457909776 18.501564019773557 2.9444800248287066 0 -2 0
183 2 -16.889509313299637 18.599211609428227 -0.160874646752467 0 -2 0
179 1 -16.45326715906292 16.81360080826949 1.3321049063561452 0 -2 0
180 2 -14.744579337455518 16.212328846351376 -0.27715021200381085 0 -2 0
181 3 -14.616578961266942 16.24357338991428 2.8124905490452954 0 -2 0
489 6 -12.665993955706782 13.697783057370112 9.65014631486736 1 1 0
488 5 -12.683547782512054 13.70620986948703 6.341405819365544 1 1 0
176 1 -14.332120794319728 14.434554722857778 1.26298886539548 0 -2 0
484 4 -12.092134648418593 11.887655590270468 7.979156077998713 1 1 0
521 5 -12.011781469515576 16.957765297158367 6.353962852963312 1 1 0
522 6 -12.010397823393069 16.95756603748599 9.674384051468715 1 1 0
150 2 -17.913803090326034 15.568581972218837 -0.20019754278461227 0 -2 0
151 3 -17.752543215755015 15.60078521714265 2.944336259862289 0 -2 0
206 1 -11.23296507594486 15.064138728576593 1.097609703129821 0 -2 0
459 6 -15.769434486516037 12.670255063024928 9.66236753777739 1 1 0
297 6 -11.369142514765135 20.179836430964855 9.623595819507257 0 1 0
148 3 -15.701978578927768 13.246798992755823 2.870295591135508 0 -2 0
147 2 -15.822912223427837 13.24778258505043 -0.2709809896465773 0 -2 0
229 1 -3.9583666001273436 11.110412789410072 1.3027979572184192 0 -2 0
326 5 -8.250707231141494 21.179037363753707 6.292439892357245 0 1 0
327 6 -8.273865129287538 21.190678575682398 9.663030355201588 0 1 0
243 3 -10.556586825323915 19.685364014209387 2.8052060858705246 0 -2 0
242 2 -10.608381903423638 19.952788297158992 -0.2618524630151609 0 -2 0
517 4 -11.408632934116046 15.152464152457098 7.970615758181188 1 1 0
296 5 -11.40808534583021 20.216643347319906 6.306668646301404 0 1 0
175 3 -10.55592315493808 11.545861568906128 2.7091645127321358 0 -2 0
174 2 -10.483341643057711 11.446497268642428 -0.3905200380000038 0 -2 0
238 1 -10.225601698080967 18.06581179089683 1.1572723835926473 0 -2 0
207 2 -9.533511285516868 14.505490349659595 -0.4745437352179918 0 -2 0
208 3 -9.527848343582294 14.462946052291967 2.686479829133361 0 -2 0
269 1 -9.190214152239234 20.979549399261767 1.3367787134321352 0 -2 0
203 1 -9.121219222335007 12.712055911278634 1.1125667287366487 0 -2 0
233 2 -4.203257330891006 12.843361831681461 -0.32865238007595154 0 -2 0
234 3 -4.380005681307057 12.889663070990224 2.7929069473446915 0 -2 0
232 1 -6.052078554309748 13.390428944849853 1.1437228703991547 0 -2 0
204 2 -7.316307116864269 12.087655835861472 -0.41571441887426835 0 -2 0
205 3 -7.333096538834994 12.286571232219396 2.684290663542558 0 -2 0
352 4 -4.622382260320612 20.382203422833935 7.945688868978261 0 1 0
322 4 -7.698113193559032 19.390417711598655 7.937829900424886 0 1 0
239 2 -8.48051666192372 17.58440463944526 -0.4502572203078336 0 -2 0
240 3 -8.471658531541733 17.44919608873903 2.7024509510414227 0 -2 0
236 2 -6.4269670483000345 15.186478896128602 -0.4066723027292799 0 -2 0
237 3 -6.464532189922005 15.178789840926884 2.607047243741792 0 -2 0
292 4 -10.791117645212903 18.366945732472146 8.008802406895764 0 1 0
323 5 -5.845389510477217 18.999368415283772 6.282963934142917 0 1 0
324 6 -5.861940657276131 18.910861223474907 9.558573448755961 0 1 0
235 1 -8.167703705504746 15.695809420304384 1.0694900018909386 0 -2 0
294 6 -8.940028586577753 17.9629298209511 9.628800095161113 0 1 0
271 3 -7.42293147892753 20.34596659528639 2.890905557946919 0 -2 0
270 2 -7.431682505546386 20.54133346936425 -0.2329187444061959 0 -2 0
266 1 -7.105615037663264 18.649962873005453 1.2092792965154127 0 -2 0
267 2 -5.2883881642540205 18.19652714837982 -0.2820424439465029 0 -2 0
18 2 -4.337431667789826 21.11890762545339 -0.20061481139480955 -1 -2 0
19 3 -4.363102943717046 21.025695270592614 2.967657897176354 -1 -2 0
14 1 -3.952144453157288 19.315326948757992 1.358178932619145 -1 -2 0
268 3 -5.318677711977576 18.021948288598573 2.75602172629978 0 -2 0
263 1 -4.963275985898962 16.33726102466181 1.1798379803139922 0 -2 0
265 3 -3.3781250185646803 15.809055308148803 2.8416786650439803 0 -2 0
485 5 -10.251945795783687 11.533414087359233 6.266197680458636 1 1 0
486 6 -10.221700925424445 11.497932514340908 9.560059298572199 1 1 0
519 6 -9.545568725584062 14.742425125700377 9.578629710968551 1 1 0
518 5 -9.583801094496126 14.672708021541661 6.258169929130345 1 1 0
514 4 -8.943963057028794 12.9148882894044 7.91988908788109 1 1 0
293 5 -8.940446778120991 17.989675298308114 6.3134405885469045 0 1 0
516 6 -7.163788895108368 12.535196676811072 9.569731427079182 1 1 0
289 4 -8.348126841507616 16.13067651916569 7.931400498295876 1 1 0
515 5 -7.05220751242799 12.481660904604148 6.248805783107398 1 1 0
291 6 -6.454925085204691 15.722927402269887 9.540952769670834 0 1 0
290 5 -6.460645055468631 15.757453980920303 6.209122836040328 0 1 0
540 4 -5.868752138207592 13.91460736330367 7.9077285099763355 1 1 0
319 4 -5.218353971121317 17.157594551285992 7.876183850092273 0 1 0
288 6 -3.98939529253624 13.57311804438294 9.587074075111016 0 1 0
287 5 -3.9913690326086826 13.551516968338298 6.216817652696126 0 1 0
264 2 -3.1294098872914256 15.777206833118438 -0.2972000651857251 0 -2 0
260 1 -2.887943014730851 14.030866028991035 1.3085737311807994 0 -2 0
539 4 -3.388345742140014 11.705555151279713 7.883703670429652 1 1 0
321 6 -3.4348720320614277 16.777503449360488 9.56673704974369 0 1 0
320 5 -3.3186977624247085 16.819011586743187 6.206989087906201 0 1 0
258 2 1.0549004272553668 11.239607406428753 -0.0660683469825812 0 -2 0
259 3 0.8842503252704448 11.204503588367979 3.1296327720147317 0 -2 0
382 4 -1.4730193170540018 21.468087544726384 7.928063238088598 0 1 0
384 6 0.34555405130075395 21.041552544351244 9.638295410356998 0 1 0
15 2 -2.1908853839184634 18.76385242732163 -0.13038809828813772 -1 -2 0
16 3 -2.300791133710743 18.70586882243284 2.9771872241328947 -1 -2 0
261 2 -1.094825210767686 13.533040304533886 -0.14240791678067116 0 -2 0
262 3 -1.21033218176248 13.49088445011464 2.9727295183298246 0 -2 0
11 1 -1.894584465902765 16.938947775304385 1.4064465333136051 -1 -2 0
257 1 -0.7903138136840259 11.705852505970501 1.4182104417075576 0 -2 0
280 2 4.064026430495159 11.947184990941958 0.10139187632154975 0 -2 0
281 3 3.974316717999743 11.900957970192788 3.1763587442979575 0 -2 0
383 5 0.29787373152066987 21.017944008013355 6.26686912939847 0 1 0
279 1 2.2666713097822555 12.454484544579651 1.5436148664143428 0 -2 0
354 6 -2.7503172754564265 20.029756586721877 9.557756801084228 0 1 0
353 5 -2.7423539419914413 20.029310866532285 6.284638003117621 0 1 0
43 1 -0.9593533642263555 19.9711219586115 1.4944397703684886 -1 -2 0
282 1 0.2369332626492069 14.696085081114202 1.485685567900834 0 -2 0
10 3 1.943515075581756 14.213930204192815 3.100617267805847 -1 -2 0
9 2 2.022905859175181 14.193769902149619 -0.018397975234341796 -1 -2 0
37 1 3.2946020052375635 15.422549407364984 1.6054157387753931 -1 -2 0
379 4 0.9208457445241884 19.262747863122943 7.963774142824189 0 1 0
380 5 2.770999402488631 18.80404001161374 6.332876484764685 0 1 0
381 6 2.711166385430712 18.796561392285966 9.622320525583524 0 1 0
349 4 -2.142337725091169 18.22533475897994 7.921792197645402 0 1 0
12 2 -0.07981521086657782 16.435255789205634 -0.0692775728068546 -1 -2 0
13 3 -0.2067665062355657 16.40950493683093 3.0363836566992246 -1 -2 0
45 3 0.7709840813197122 19.435953539175767 3.056798534740201 -1 -2 0
44 2 0.8156529304883957 19.540828630545384 0.00992926443847396 -1 -2 0
40 1 1.176374541194641 17.696212421383258 1.5183160874438166 -1 -2 0
71 1 2.181217871015589 20.694864307048267 1.5466151241814816 -1 -2 0
73 3 3.872189637671892 20.161943853015213 3.185960230880293 -1 -2 0
72 2 3.9668756778024767 20.161811320046787 0.0547444835074598 -1 -2 0
68 1 4.341572904767621 18.430356083217948 1.6044148663717805 -1 -2 0
41 2 2.9723306658795514 17.17788859443993 0.032271136472167485 -1 -2 0
42 3 2.8932066095378097 17.236646391891874 3.1424290083303514 -1 -2 0