LAMMPS data file via write_data, version 27 Jun 2024, timestep = 20000, units = metal

540 atoms
6 atom types

0 37.59365801343109 xlo xhi
0 21.52779524830364 ylo yhi
-0.5089749650969176 10.004507670849797 zlo zhi
-27.49615054720427 0 0 xy xz yz

Masses

1 95.95
2 32.06
3 32.06
4 95.95
5 78.971
6 78.971

Atoms # atomic

436 4 -10.733952143401472 10.442559360423523 8.037721012112938 1 1 0
468 6 -5.812425025884073 10.978414263981474 9.78269160190167 1 1 0
464 5 -3.582438252777955 8.863649732598873 6.469820934929608 1 1 0
465 6 -3.53126452578269 8.850024531726335 9.689137117820692 1 1 0
207 2 30.621267749674026 5.410615833473022 -0.10386067176732103 -1 -1 0
208 3 30.750402172469894 5.227580417822478 2.9709691101223883 -1 -1 0
463 4 -5.341533164380905 9.207505649066636 8.086002176802195 1 1 0
235 1 -5.589312655757701 6.398000475002113 1.4006788036800915 0 -1 0
437 5 -8.978276992055028 10.000681079775127 6.349857739434223 1 1 0
438 6 -8.904254181496471 9.940277017509251 9.718725448734677 1 1 0
435 6 -6.360931027903076 7.728975596552466 9.811203656241132 1 1 0
434 5 -6.549787534332107 7.77091125853048 6.429650717563271 1 1 0
432 6 -4.014844707833536 5.638663058244058 9.861265968882767 1 1 0
209 1 -10.464958212062047 8.378941421790895 1.570728882567532 0 -1 0
211 3 -8.856570543907992 7.7003977795835965 3.0176596102616915 0 -1 0
210 2 -9.039957696094817 7.43833620105544 0.027204066739761418 0 -1 0
238 1 -7.462578188072518 8.902105742294056 1.5711117549473017 0 -1 0
239 2 -6.040771907852053 8.229091288202552 -0.04101967978274271 0 -1 0
240 3 -5.99353276533748 8.010924677344065 2.942757835240501 0 -1 0
204 2 32.713364359679446 2.7757679496356014 -0.2727077102893276 -1 -1 0
433 4 -8.310812557836257 8.17490180846109 8.170755410263624 1 1 0
430 4 -5.919563389503886 5.871851939212655 8.18395989996537 1 1 0
431 5 -4.03337764502367 5.485958811700098 6.486823530283221 1 1 0
232 1 -3.454451041301502 4.032792048842599 1.316929909387352 0 -1 0
236 2 -4.010095012783302 5.908710271325923 -0.21704292313309564 0 -1 0
237 3 -3.6398730950204663 5.701477281431272 3.0176342075243565 0 -1 0
460 4 -2.8131294528692417 6.92713695533109 8.059572289581055 1 1 0
427 4 -3.57862576546337 3.7743304594089113 8.114180280884849 1 1 0
213 2 -10.953395299343105 10.064267486262146 -0.00973582207515048 0 -1 0
266 1 -4.532073733533673 9.344301068618988 1.434704395851049 0 -1 0
493 4 -2.3872896094296445 10.309960954404733 8.010160731798576 1 1 0
462 6 -1.1865306271991645 6.458586705178547 9.727676070943295 1 1 0
494 5 -0.5565765639575974 9.704059664071993 6.312099780177423 1 1 0
495 6 -0.519560300381525 9.952140204579436 9.62625375774305 1 1 0
524 5 2.4660677431515223 10.767417901122906 6.285274438887248 1 1 0
525 6 2.717795705734198 10.832350784362749 9.530771684764154 1 1 0
520 4 3.2417502140750756 8.968332665731348 7.881555288725683 1 1 0
229 1 -1.1942756682738929 1.7441326154434762 1.220516551421905 0 -1 0
491 5 1.9478206233189432 7.474961925901916 6.18622198853606 1 1 0
492 6 1.9431236735412056 7.741613319089468 9.531242825082503 1 1 0
490 4 0.08567916978291724 7.947092390405804 7.957757055620957 1 1 0
487 4 2.4879125417946053 5.742253496947747 8.070042294060373 1 1 0
488 5 4.303573298179292 5.427112720497545 6.139987820321218 1 1 0
489 6 4.459885004886034 5.418511172661445 9.583181743243559 1 1 0
233 2 -1.7480764346894357 3.726316005449676 -0.32974086625378857 0 -1 0
234 3 -1.5960194208143106 3.6360733911239387 2.7237453058084493 0 -1 0
230 2 0.38156667584747317 1.1285489144738359 -0.4070631254949632 0 -1 0
197 1 -26.716659845089236 21.022250728945714 1.2389177516835408 0 -1 0
231 3 0.6858012798248231 1.2001823132327176 2.8681560745282595 0 -1 0
261 2 1.3217709041736168 4.162819501704624 -0.49618732646503366 0 -1 0
262 3 1.4196839746318306 4.390896925082748 2.641938486553946 0 -1 0
461 5 -1.0254728402463886 6.283440421010862 6.389746563599815 1 1 0
458 5 1.2832548873300142 4.1076617573158245 6.360515550819905 1 1 0
260 1 -0.3254119530126263 4.730791065637651 1.0577042479200387 0 -1 0
459 6 1.50200944529872 4.227772763345091 9.825552200468264 1 1 0
257 1 1.747132306241843 2.4615463623608482 1.1247700901738122 0 -1 0
457 4 -0.4489287128594527 4.635749869425199 8.107553230109447 1 1 0
263 1 -2.375220190889171 7.0030857144666605 1.2158516363648273 0 -1 0
264 2 -0.7689781865603021 6.610736442434595 -0.38212389751972375 0 -1 0
265 3 -0.49020285568691596 6.459512632673968 2.6924326111756423 0 -1 0
12 2 2.585278750375594 7.429620223245665 -0.3662756346008961 -1 -1 0
454 4 2.0843376141229735 2.451326163395123 8.20315868619197 1 1 0
282 1 2.822806134992056 5.381069853169352 1.033397507239964 0 -1 0
455 5 3.890542857182279 2.138868437717127 6.4266649468877075 1 1 0
456 6 3.968867119623245 2.236086321983843 9.740495133439133 1 1 0
267 2 -2.8249243802966713 8.849849327316509 -0.27711555350676886 0 -1 0
11 1 0.5974618934749538 7.808064034551056 1.0546008269093172 -1 -1 0
13 3 2.345783672340574 7.19873327074319 2.727835476561953 -1 -1 0
256 1 3.962535310358135 0.030569905505334092 1.1561906967421804 0 -1 0
258 2 3.3166078650032094 1.6983914710199952 -0.47518952468809966 0 -1 0
259 3 3.4985280080836745 1.9151089164462127 2.6458351245414535 0 -1 0
40 1 3.8384226793702534 8.494198729407964 1.1864386798441844 -1 -1 0
428 5 -1.7687475803714767 3.1863503525312264 6.473330055306176 1 1 0
429 6 -1.6905478370864193 3.3279716636199095 9.749318018463365 1 1 0
10 3 4.515923667414397 4.6754289038933186 2.5698071230611466 -1 -1 0
9 2 4.610835880449811 5.069296133523631 -0.49897496509691763 -1 -1 0
484 4 5.049490305378378 3.535513931726568 7.891058696889838 1 1 0
425 5 0.7415788350684236 1.0903667355605573 6.582882535192184 1 1 0
426 6 0.7346013388739773 1.0743035829043204 9.877357101472759 1 1 0
268 3 -2.678955346305177 8.694649565801503 2.8929655190823222 0 -1 0
521 5 5.064980740820568 8.62594086110258 6.176949345244332 1 1 0
522 6 5.108217971467596 8.526399702515969 9.518936864207738 1 1 0
424 4 -1.1008831963220749 1.5819021350621942 8.185662856207923 1 1 0
15 2 0.33090615846973664 9.610232268464916 -0.2756623288713403 -1 -1 0
16 3 0.37987759963935347 9.37174859444807 2.890140933514699 -1 -1 0
14 1 -1.3933504277933888 9.922629363979041 1.3253194457474533 -1 -1 0
279 1 4.891804977271661 3.118341300610795 0.8761514912847479 0 -1 0
292 4 6.413242304141098 10.0291176683488 7.8078380685694695 0 1 0
517 4 5.689976545651087 6.720272227897595 7.77305206724564 1 1 0
293 5 8.204126761973354 9.513362399574499 6.174655630066269 0 1 0
518 5 7.403256577652318 6.219015615540248 6.170625143941852 1 1 0
519 6 7.513901465489723 6.151665789471308 9.470762888399827 1 1 0
514 4 8.104252194865412 4.480904996659668 7.779717432654065 1 1 0
294 6 8.295447731446968 9.448434233703464 9.623777607832578 0 1 0
289 4 8.680897736525965 7.669512851130007 7.771402295448857 1 1 0
322 4 9.468866123247238 10.929747123754721 7.93646753814985 0 1 0
323 5 11.373263780415133 10.677169797747728 6.300353468396114 0 1 0
324 6 11.484412310987166 10.578928681126229 9.63255054980155 0 1 0
319 4 11.989443039795118 8.791040448097387 7.935966870978078 0 1 0
227 2 -21.791662421180142 21.142750530599756 -0.4532298291025126 0 -1 0
228 3 -21.79633555424591 21.06651483071473 2.806336500410225 0 -1 0
291 6 10.555301281378226 7.380553128208899 9.606729671553584 0 1 0
290 5 10.738031185115872 7.440839069846758 6.214222588296177 0 1 0
276 1 7.011582174009846 0.9773741526466754 1.1329205715667092 0 -1 0
540 4 11.294582517762521 5.632661031363912 7.9172938937326 1 1 0
280 2 6.742861243428403 2.7113280166659144 -0.4430274822006741 0 -1 0
281 3 6.67252300540141 2.6993222236890135 2.6855473130413747 0 -1 0
287 5 13.22361116939976 5.1978196539573895 6.299898589827796 0 1 0
288 6 13.0668740155436 5.248313975388526 9.571598818151475 0 1 0
34 1 8.28323808563886 3.6873701453512258 1.2304579443332557 -1 -1 0
277 2 8.968973183168828 0.4215161393171717 -0.30508866020027475 0 -1 0
278 3 8.944406040889367 0.33185409367600177 3.015237526891028 0 -1 0
35 2 9.918723905717853 3.121850439562886 -0.33250304062408553 -1 -1 0
36 3 10.009590732150574 3.363548526775078 2.7053362713795615 -1 -1 0
515 5 10.00362788395527 4.206933636044873 6.122759865530601 1 1 0
516 6 10.04661701840408 4.098000399779892 9.541588751238905 1 1 0
38 2 7.866098075670841 5.626009378923855 -0.21317703346429634 -1 -1 0
39 3 7.712301409574524 5.256699558563865 2.9006725466650627 -1 -1 0
31 1 10.308983771471086 1.498155335518964 1.4132816436861841 -1 -1 0
485 5 6.854850077113418 2.9635659458779853 6.190130274437932 1 1 0
486 6 6.98671475556555 3.112840301537655 9.536872088704676 1 1 0
37 1 5.955662980720507 5.984994415291825 1.2186730382547624 -1 -1 0
65 1 9.184738426647426 6.697359472341228 1.35579810159129 -1 -1 0
67 3 10.784498741060643 6.213743254937852 3.0710578666352344 -1 -1 0
66 2 10.944125555480884 6.438750300188435 -0.18103885617370602 -1 -1 0
511 4 10.529002179424966 2.444452112289014 7.85858729506862 1 1 0
512 5 12.361628771010476 2.1342665507113585 6.182317657847364 1 1 0
513 6 12.396254366887735 1.914906344883867 9.595922931371208 1 1 0
41 2 5.677142666527477 7.9275090161300374 -0.3475030534518975 -1 -1 0
42 3 5.506603029601134 7.862400270169492 2.8399695899747783 -1 -1 0
69 2 8.740910580680001 8.596695816058004 -0.06403299103671693 -1 -1 0
70 3 8.788607916920082 8.635307239202739 2.7481835933532786 -1 -1 0
32 2 11.883400707269125 0.8228220276708011 -0.22209405208933344 -1 -1 0
33 3 11.963632923121445 1.0146098305814506 2.859899670876863 -1 -1 0
62 1 11.152055564064643 4.524487572149779 1.1336486628664946 -1 -1 0
95 1 12.200768816260956 7.459787387834726 1.4888402362850381 -1 -1 0
481 4 7.429570401051816 1.135654359871718 8.01195250822453 1 1 0
68 1 6.978465400248619 9.071016486173585 1.3201033308220191 -1 -1 0
482 5 9.159134418687705 0.8496985563082402 6.394705547791296 1 1 0
483 6 9.480851449846213 0.7686484163561041 9.487460687037903 1 1 0
98 1 10.219655939794906 9.961949967669069 1.4430383967721976 -1 -1 0
99 2 11.950793911408727 9.424378735630581 -0.13350631133599591 -1 -1 0
100 3 11.987858270000423 9.319448868320878 2.9541437683438527 -1 -1 0
63 2 13.166518015950452 4.068839571279861 -0.27738625648430754 -1 -1 0
64 3 12.905135318514915 4.262349292432405 2.7665771519990185 -1 -1 0
59 1 13.447786090494347 2.3245370687361318 1.4755382337744023 -1 -1 0
320 5 13.957837557430826 8.26398543997851 6.294056443401582 0 1 0
321 6 13.817861694569016 8.306369793477858 9.556263504555412 0 1 0
539 4 13.720781323695197 3.338635673061589 7.877841968181692 1 1 0
316 4 14.455331223181762 6.577977457508062 7.928396222835781 0 1 0
349 4 14.977089804816337 9.8209966031591 7.992649885198521 0 1 0
317 5 16.366493857047747 6.194052662192784 6.478589194754272 0 1 0
318 6 16.15637994408468 6.0342320288876925 9.720825814101687 0 1 0
350 5 17.162577505949415 9.375399400891116 6.494185662325058 0 1 0
351 6 16.815106265598544 9.553818815347043 9.725786919305738 0 1 0
379 4 18.239809877111462 10.832478357568894 8.053875905931003 0 1 0
380 5 20.029021107496636 10.233257099616148 6.439392855330537 0 1 0
381 6 20.03466736301167 10.46924940445674 9.75022326966317 0 1 0
346 4 17.508534011559906 7.592726099821655 8.235657577456642 0 1 0
376 4 20.64477292093704 8.531512553915968 8.17412273945404 0 1 0
60 2 15.053587846713995 1.6397997223291225 -0.212154389204399 -1 -1 0
347 5 19.190254153542355 7.0405364743998 6.579456883152458 0 1 0
348 6 19.468497936876783 7.077996753885334 9.909858730635314 0 1 0
58 1 -12.019058851966804 21.50111457593511 1.4786490160852603 -1 -2 0
343 4 19.840418338018562 5.260317391316647 8.246339070288316 0 1 0
89 1 16.44089636008738 2.969007415183814 1.3122957891231877 -1 -1 0
61 3 15.173745467707107 1.6662617914913616 3.148127641477766 -1 -1 0
29 2 -10.434185339370586 20.837408294724924 -0.017390419211548058 -1 -1 0
30 3 -10.197570659676868 21.054784145237573 3.1144332880866243 -1 -1 0
313 4 16.8891703953353 4.235681965475857 8.102639343376842 0 1 0
314 5 18.559199689807976 3.825771883871893 6.31665560893413 0 1 0
315 6 18.644889329050567 3.820787764888247 9.708523448569714 0 1 0
93 2 16.09241009243501 4.637524691790474 -0.325607773233989 -1 -1 0
94 3 15.991933803865805 4.67932217982048 2.8843239965140355 -1 -1 0
92 1 14.378802602793732 5.298427920687815 1.2673517505669205 -1 -1 0
86 1 18.455564385306747 0.5409047907389803 1.437606507416852 -1 -1 0
90 2 18.199074117958588 2.2566138500722364 -0.1719338151629591 -1 -1 0
91 3 18.128585178332866 2.326022542796392 2.9312766745094168 -1 -1 0
124 3 18.9581447029771 5.649913002031352 3.050192077453579 -1 -1 0
123 2 19.044088131375734 5.207546521496847 -0.13333494735611012 -1 -1 0
285 5 15.632509742554289 2.93140468753752 6.221418377074614 0 1 0
286 6 15.60840388668871 2.823643011087784 9.586808758161306 0 1 0
122 1 17.32300630741496 5.835627123132629 1.3510604046732893 -1 -1 0
96 2 13.85662117606234 7.054006592541502 -0.21032288208959188 -1 -1 0
97 3 14.041637466463314 6.918698543270506 2.8613613871348567 -1 -1 0
310 4 19.3301030306517 2.042900269559744 7.976184474828262 0 1 0
311 5 21.11300408920366 1.7721317495574695 6.2397541926157425 0 1 0
125 1 15.181486367983252 8.192714970289819 1.3614082354182766 -1 -1 0
126 2 17.113369667491092 7.607452530052145 -0.205329134593446 -1 -1 0
127 3 16.99909945168145 7.962917485041691 2.876260214239282 -1 -1 0
119 1 19.517259287622757 3.6444001031824524 1.5674093686579984 -1 -1 0
153 2 20.1124883357424 8.350853010162789 -0.26583559947879837 -1 -1 0
154 3 20.22496055949334 8.421874859885158 2.90668093790362 -1 -1 0
152 1 18.4351879790228 9.067457567547441 1.44392758967851 -1 -1 0
87 2 20.39823645424943 0.14404985684807312 -0.14131532988725468 -1 -1 0
88 3 20.44941414785762 0.13381482505531114 3.1870886256204094 -1 -1 0
149 1 20.534891591185822 6.5770331208766795 1.328749137801821 -1 -1 0
538 4 16.080392829988682 1.0465054337885802 7.956052170146711 1 1 0
312 6 21.07666055924659 1.4768504230859658 9.559209416252259 0 1 0
283 5 17.956130043668843 0.7388846015566817 6.229301868466284 0 1 0
284 6 17.97538369502734 0.6220666675629302 9.552332692032063 0 1 0
129 2 15.158444174626515 10.003688226697243 -0.15004235586289338 -1 -1 0
130 3 15.03587546377873 10.059632138857465 3.077835640800162 -1 -1 0
206 1 28.906099176932152 5.713223849978673 1.5264048876617269 -1 -1 0
120 2 21.340485692214585 3.0325486243204574 -0.09233956680752783 -1 -1 0
121 3 21.34283258760595 3.107197740192523 3.079040501826585 -1 -1 0
344 5 21.53548692786917 4.881142451077552 6.463052981449833 0 1 0
345 6 21.757207501646036 4.936307927619168 9.921827405160787 0 1 0
177 2 27.40441974395544 4.487811023895749 0.12695992644477075 -1 -1 0
178 3 27.47509648470201 4.523485447053142 3.216217086671485 -1 -1 0
180 2 25.841245790882187 7.2207457833140545 -0.012427544253648145 -1 -1 0
181 3 25.39656062443458 7.122041325834687 2.9812983433987372 -1 -1 0
377 5 22.43423749854181 8.120264695774143 6.497241412096358 0 1 0
378 6 22.534588950952184 8.264316002634528 9.781877926548054 0 1 0
340 4 22.358236503557805 3.115972352771322 8.07006381147597 0 1 0
179 1 23.7387572754335 7.572791498773891 1.4270272521977723 -1 -1 0
176 1 25.751611559936077 5.275108166772675 1.5930528246466824 -1 -1 0
146 1 22.59999702876195 4.412973310287092 1.5197486646329943 -1 -1 0
144 2 26.488457020199057 1.6359789122653894 -0.16562031040290257 -1 -1 0
145 3 26.69618420918663 1.4631168414860238 3.105053403030928 -1 -1 0
147 2 24.49919429418526 3.924544976741235 0.06851780289600563 -1 -1 0
148 3 24.33036955940812 3.928197715659485 3.0560189553173993 -1 -1 0
406 4 23.75989986165554 9.525738158814558 8.09552625904678 0 1 0
373 4 23.011926274477396 6.304095516116442 8.21477278116991 0 1 0
143 1 24.78132566714412 2.1519747046450566 1.550174371505505 -1 -1 0
116 1 21.672478869991313 1.4353477916468937 1.5751970262829877 -1 -1 0
118 3 23.4349633486185 0.7822729050193616 3.035010993789901 -1 -1 0
117 2 23.477252746405572 1.01576677887052 -0.0164753952986717 -1 -1 0
407 5 25.460671539102965 8.99596387938202 6.3892423698892875 0 1 0
408 6 25.628477921744395 9.025435952469461 9.626977309578143 0 1 0
403 4 26.029310340478677 7.211068952996823 8.10808674002949 0 1 0
405 6 27.97678300821523 6.854118200582282 9.7935096090229 0 1 0
404 5 27.818515847595666 6.732392248440834 6.572371464238413 0 1 0
374 5 24.733218582093734 5.730752268182307 6.509183332879928 0 1 0
375 6 24.908481092570725 5.848350937174228 9.808669315795118 0 1 0
400 4 28.497494516384982 5.0016854972317955 8.20420894994234 0 1 0
370 4 25.428571567198496 3.9946270134409105 8.127269625838402 0 1 0
371 5 27.398072178303185 3.678784471939121 6.545362365148325 0 1 0
372 6 27.147132234695924 3.540028317647716 9.896065538390618 0 1 0
113 1 -0.5581546349314206 21.338273483809107 1.3794341940581236 -1 -1 0
150 2 22.50157948247474 6.112905515876998 -0.2434824163167957 -1 -1 0
151 3 22.382495473861514 6.229290505783402 2.968286713793457 -1 -1 0
341 5 24.259827059665117 2.5910935170355582 6.3809658854647 0 1 0
342 6 24.098168347731857 2.5182503511611287 9.649795712720076 0 1 0
367 4 27.79796005455033 1.6788553854036423 8.14348455174063 0 1 0
173 1 27.918053963377908 2.6100191062192786 1.4689092923228873 -1 -1 0
184 3 23.193628233538067 9.310621769658686 2.9728569985324325 -1 -1 0
183 2 23.388975062330633 9.293036694521724 -0.019995687867452507 -1 -1 0
369 6 29.527240630226963 1.089563198941484 9.7806542857057 0 1 0
337 4 24.72074082220559 0.5777721296646126 7.981993621361241 0 1 0
339 6 26.7578338359422 0.16642375884031269 9.830341570674541 0 1 0
182 1 21.61673106335172 9.784243875451029 1.2643309714053232 -1 -1 0
205 3 32.73323971494342 2.9597359962411103 2.8697170338699927 -1 -1 0
202 3 34.98824293191139 0.6524999597568831 2.7776170015900776 -1 -1 0
203 1 31.015729450326447 3.498297365440352 1.3721893054848957 -1 -1 0
201 2 34.939628088560674 0.6763657190057271 -0.35001186571378734 -1 -1 0
174 2 29.64226116073473 2.2035419851361735 -0.21281130934901937 -1 -1 0
368 5 29.567471573109135 1.242121430176545 6.494864749711005 0 1 0
200 1 33.23154244307531 1.0475881000632459 1.2464106787365854 -1 -1 0
401 5 30.332008721200676 4.43309947329629 6.473060267821777 0 1 0
402 6 30.32625417165183 4.411103510297818 9.857548428971626 0 1 0
175 3 29.77461153727388 2.1399301376840936 2.799417226483736 -1 -1 0
171 2 4.309185033549448 21.481623306280053 -0.3509130612359228 -1 -2 0
172 3 4.263611150923344 21.406999102767845 2.7943388138334764 -1 -2 0
170 1 30.08014047477139 0.45024205102999354 1.2371335166987176 -1 -1 0
398 5 32.694813909008715 2.2369806297816837 6.599246432198328 0 1 0
397 4 30.80534555638812 2.552470213768437 8.10533163505016 0 1 0
399 6 32.63311043500848 2.4294354310072297 9.8030861113319 0 1 0
394 4 33.413919594920145 0.5526020769963035 8.237375610932599 0 1 0
198 2 -24.996847864664517 20.280689046910084 -0.2704466875070059 0 -1 0
199 3 -25.04463438444787 20.617231916286503 2.8956594555436186 0 -1 0
194 1 12.980028853378295 18.71801144286967 1.4516703867731011 -1 -1 0
195 2 -22.730753252830983 18.192899469866337 -0.2102432792454707 0 -1 0
196 3 -22.696377601826907 18.205529179140125 2.772229608842855 0 -1 0
224 1 -21.38685172388366 19.400112835887764 1.2518699818318468 0 -1 0
451 4 4.413523697796018 0.3035345906625454 8.131811428011634 1 1 0
452 5 -21.323976186990922 21.32746767577264 6.4597589614060675 1 0 0
453 6 -21.202548842944786 21.23726298690536 9.755699368428992 1 0 0
448 4 -20.614756076476766 19.503856642445218 8.181847724135535 1 0 0
192 2 16.76331515324073 15.767266959189028 -0.028544049153136866 -1 -1 0
193 3 16.799360071638162 15.867911030973062 3.0588073629814416 -1 -1 0
422 5 -24.380868660400278 20.29011053354257 6.472847102757669 1 0 0
423 6 -24.267541598237706 20.356688079825435 9.774047822585057 1 0 0
420 6 -21.79041072647178 18.11857454428053 9.994507670849798 1 0 0
419 5 -21.809277302369203 18.046960062332793 6.5105704416925985 1 0 0
416 5 -19.46439415524825 15.94128624671376 6.331561548137228 1 0 0
417 6 -19.259894825591772 15.740931377925133 9.715646417061258 1 0 0
6 1 -15.14612794360241 20.704264600801352 1.34761711007362 -1 -1 0
253 1 -18.26525738866105 20.08513785258557 1.300951736286668 0 -1 0
7 2 -13.501933418451905 20.135128921293582 -0.1014498574554777 -1 -1 0
8 3 -13.441579765479156 20.40887044708504 3.201826701483396 -1 -1 0
225 2 -19.638469584056097 19.14131858661715 -0.31768879314641674 0 -1 0
226 3 -19.721425686457536 19.027520098952078 2.9304077559742616 0 -1 0
449 5 -18.761462113996433 19.10544323904975 6.45524882696581 1 0 0
450 6 -18.57965268879949 19.09038486439565 9.891816136731041 1 0 0
445 4 -17.98939238559464 17.20853289314536 8.133080333760073 1 0 0
440 5 -11.429105865874227 12.199199556663224 6.300660349412526 1 1 0
441 6 -11.382979649038404 12.297902577993247 9.790678979241854 1 1 0
254 2 -16.544377612893545 19.452593046789325 -0.27037088761467387 0 -1 0
255 3 -16.60065338073107 19.770380001123762 3.0714056847913502 0 -1 0
439 4 -13.171228064341465 12.68928096252312 8.002715108020455 1 1 0
221 1 -19.344248299740546 17.286187495737195 1.5328102805661947 0 -1 0
222 2 -17.66088310160351 16.780762721438254 -0.09342010335970281 0 -1 0
250 1 -16.092321030345826 17.930014689038142 1.531389602278044 0 -1 0
251 2 -14.218554328491505 17.502765304113126 0.09709858373941589 0 -1 0
252 3 -14.336434089737939 17.468702199766202 3.20645208387558 0 -1 0
478 4 -17.447366098114404 20.4914333017979 7.961854236506519 1 0 0
223 3 -17.656104281855715 16.792647485714262 2.9664832746465497 0 -1 0
218 1 -17.27692852999886 14.877950938595811 1.5156820537949838 0 -1 0
189 2 19.067684509600745 13.700754323227311 -0.08055300152026894 -1 -1 0
190 3 19.075116408080248 13.668249464828147 3.171905834158985 -1 -1 0
509 5 -12.58292848618629 21.282215527362265 6.175790602036436 1 0 0
510 6 -12.684207067943992 21.070676432609318 9.49786692656875 1 0 0
508 4 13.130396793480637 0.12798266631870014 7.810896624251611 1 1 0
505 4 -11.953029811367415 19.28897686944496 7.804450024330536 1 0 0
479 5 -15.637841544704235 20.273413754965596 6.112110343672436 1 0 0
476 5 -13.016948995965723 17.584222333010658 6.141011904878994 1 0 0
477 6 -13.219208345788505 17.893900311441254 9.508058689583176 1 0 0
480 6 -15.482468947197033 20.2173262947958 9.446988879003992 1 0 0
219 2 -15.375464227877307 14.568133488828007 -0.14680530446032167 0 -1 0
220 3 -15.542890065143187 14.451971006091734 3.0557870136423166 0 -1 0
215 1 -15.014802886614124 12.861916164060649 1.497132098606043 0 -1 0
475 4 -15.01612857573501 18.33617286961074 7.716702526217709 1 0 0
472 4 -12.63520980372513 15.991305135430474 7.969574808091516 1 0 0
247 1 -14.07148398685674 15.644752300901985 1.5292960113147591 0 -1 0
442 5 -13.756716234076272 14.541728798840166 6.28315390908918 1 1 0
446 5 -16.39703979005523 16.929432835083027 6.3253576466497625 1 0 0
447 6 -16.09273067661287 16.946812751784883 9.56884161239687 1 0 0
443 6 -13.92948992261154 14.684456006663586 9.73442033739661 1 1 0
216 2 -13.267324845730064 12.421803121273093 -0.037454590867322536 0 -1 0
217 3 -13.287649731222503 12.322751480784117 3.2805123486054253 0 -1 0
444 4 -15.764324496567736 15.052685204245249 7.952723549682637 1 0 0
3 1 -13.012100523012743 18.56111402018921 1.7526854494082649 -1 -1 0
248 2 -12.186046686781722 15.118142583680875 0.2770576922065851 0 -1 0
249 3 -12.463027100860867 15.1262559125216 3.2261685517996757 0 -1 0
212 1 -12.923415943719752 10.455811534643551 1.6300202581338914 0 -1 0
244 1 -11.925764214352695 13.434397160506691 1.6670245350057946 0 -1 0
467 5 -5.893886905488961 11.083389641011468 6.306358058565619 1 1 0
466 4 -7.746399062960661 11.365463239542004 8.018464016278836 1 1 0
83 1 -3.7200396347170726 20.730742920683916 1.463312779560322 -1 -1 0
5 3 -11.355291601808634 18.03945998380262 3.3645279369611574 -1 -1 0
4 2 -11.296838928382748 17.93988991394796 0.13990367629563114 -1 -1 0
473 5 -10.796315879427386 15.433572516168377 6.376019533214761 1 0 0
474 6 -10.949060051456822 15.46863205195946 9.67839701843446 1 0 0
55 1 -6.808647711144406 19.929691737569346 1.494910227141684 -1 -1 0
57 3 -4.989288350091498 19.43664175234591 3.114658451851203 -1 -1 0
469 4 -10.210071614887983 13.546200874452996 8.074013837003273 1 1 0
506 5 -9.980216937527942 18.745046410180795 6.170930797688004 1 0 0
507 6 -10.11689095822923 19.071497872411435 9.531357632950446 1 0 0
496 4 -4.786758072123689 12.556399459229215 7.973770149257457 1 1 0
26 1 -10.079628356940534 19.161348485864337 1.7610021063953964 -1 -1 0
28 3 -8.158079426090541 18.779740221013483 3.0636518139217706 -1 -1 0
27 2 -8.272976439969685 18.758174058697698 0.02172548704550514 -1 -1 0
470 5 -8.237619261898606 13.150887292720716 6.463498484807781 1 1 0
471 6 -8.394834405967007 13.219805841733278 9.80831494635494 1 1 0
23 1 -7.718594346043398 17.117176917515426 1.4487397048363297 -1 -1 0
502 4 -9.532572048518253 17.00195340252125 8.03427478451301 1 0 0
499 4 -7.172941905104041 14.635030839358313 8.093217346065426 1 1 0
500 5 -5.436716818157292 14.293842231402886 6.309963582875612 1 1 0
501 6 -5.325858813002221 14.375779881476605 9.60517850655699 1 1 0
275 1 -10.999073218158149 16.33826530349117 1.738671900836684 0 -1 0
1 2 -9.345327395844652 15.905591034922068 -0.08980366079021897 -1 -1 0
2 3 -8.922821078910745 15.895392222643013 3.092205282464185 -1 -1 0
535 4 -8.92233578193893 20.351889016849444 7.862681979698002 1 0 0
504 6 -7.543189700604642 16.722239023014513 9.54199507082921 1 0 0
529 4 -4.1323313514740105 15.74692512253497 7.908161716968772 1 0 0
272 1 -8.767230397085322 14.145547364407534 1.6353504687223206 0 -1 0
503 5 -7.871965915531924 16.373464660584318 6.291904241178018 1 0 0
214 3 -10.252719222739778 13.262927800354602 3.2858694902195773 0 -1 0
245 2 -10.132522611801344 13.034964301414686 0.2724248312649728 0 -1 0
246 3 -10.118870250924102 13.22937218629436 3.3297996633369533 0 -1 0
533 5 -4.725410264490829 17.663732214905792 6.27769492735797 1 0 0
534 6 -4.8077412903286065 17.51319806846764 9.553348493276028 1 0 0
532 4 -6.519310050329012 18.139644282487765 7.8246119696743355 1 0 0
241 1 -9.654633384152978 11.35119032080135 1.7836610920146603 0 -1 0
536 5 -7.130557809809863 19.957881686928072 6.2088317723108295 1 0 0
304 4 -3.344210536531341 18.98599816070238 7.991122520752483 0 0 0
537 6 -7.031808692610392 19.920803295703372 9.48094444500559 1 0 0
307 4 -5.856668639416175 21.347542173741775 7.793585232208422 0 0 0
308 5 -3.9634239696300146 20.77285814219111 6.2352248164744015 0 0 0
309 6 -4.2494049572164 20.622345431794727 9.711491439088872 0 0 0
242 2 -8.09932674159083 10.476872603508411 0.019652679053801626 0 -1 0
243 3 -7.84904114403833 10.761437289872775 3.0230907309043613 0 -1 0
273 2 -6.955109746684646 13.7229225298036 -0.1205614586155 0 -1 0
274 3 -6.970713385562293 13.395054837970337 3.1106839413902105 0 -1 0
269 1 -6.558536594214124 11.807016467344765 1.3216683502132696 0 -1 0
24 2 -6.2600935361316346 16.473947632080737 -0.09983754235454699 -1 -1 0
25 3 -5.821856282616778 16.59421596880709 2.9919410645540103 -1 -1 0
20 1 -5.589366467868905 14.664410508467364 1.5429438860015519 -1 -1 0
271 3 -4.985898951809185 11.211505255913472 2.9252370675885344 0 -1 0
56 2 -5.171200550324361 19.32631795962219 0.01854767623866928 -1 -1 0
52 1 -4.602688081223468 17.669529994526638 1.4760038776521656 -1 -1 0
21 2 -3.986310040649788 14.035973081791393 -0.024798082735838427 -1 -1 0
270 2 -4.914150373229502 11.087296363220064 -0.15321274105243976 0 -1 0
22 3 -3.857473134759552 14.053569322482113 3.087623306695738 -1 -1 0
17 1 -3.5530025589792187 12.40028084398844 1.5284423001158631 -1 -1 0
498 6 -2.879377111921857 12.08597383995274 9.653649618960063 1 1 0
497 5 -2.9671778286710073 12.15775237722208 6.3564280505952215 1 1 0
523 4 0.6967314154324956 11.25978993442264 7.921074880851953 1 1 0
114 2 1.1429702551551453 20.78798476058333 -0.206514588186692 -1 -1 0
115 3 1.2620940986612195 20.89835118167243 2.854506142071908 -1 -1 0
84 2 -2.0574805052851177 20.081534953753724 -0.25024823511703076 -1 -1 0
85 3 -1.8804095941791703 19.98885882012578 2.9464026384093653 -1 -1 0
53 2 -3.0150816962115754 17.011197800707063 -0.11351416358380453 -1 -1 0
530 5 -2.3044778508299895 15.28827002451816 6.295486884833105 1 0 0
531 6 -2.176877132229795 15.301655652272801 9.591744007168739 1 0 0
527 5 0.1855905755459805 13.067486369677743 6.204292768354473 1 1 0
295 4 3.8584477473314958 12.160521150183904 7.924266258723883 0 1 0
80 1 -1.5947470983825096 18.39969976058533 1.2988738126757375 -1 -1 0
110 1 1.6027460718040984 18.99803238220526 1.4436465683720097 -1 -1 0
526 4 -1.6553563040342911 13.58113654993538 7.982156699733435 1 1 0
528 6 0.06391360505919977 13.07262063531662 9.544923286214281 1 1 0
299 5 3.439964088921534 14.235089812039407 6.359618082214206 0 1 0
300 6 3.261460550319006 14.021166898221923 9.483902606635553 0 1 0
54 3 -2.642117200211565 17.152256216100277 3.0783981172166515 -1 -1 0
81 2 0.21015466516554354 17.824235635680843 -0.16505411430140163 -1 -1 0
82 3 0.22537618526519976 18.020249142219225 3.05925105619806 -1 -1 0
301 4 -1.0166221308559436 16.83834551096988 7.967195574629604 0 0 0
305 5 -1.533134611181362 18.623631788166314 6.410884727300634 0 0 0
306 6 -1.5583849683294098 18.520817404208415 9.681481767738925 0 0 0
298 4 1.3724968712376704 14.468500735671283 7.9360595667539915 0 1 0
77 1 0.49720689019209996 16.219078571806516 1.604325066393214 -1 -1 0
49 1 -2.3986706111643996 15.318805535715915 1.5874384968881634 -1 -1 0
334 4 -0.23863026865691014 20.02561045537231 8.034817680496248 0 0 0
338 5 26.483365598073096 0.3743076322375943 6.43696951525377 0 1 0
328 4 4.754012933652427 15.475492125093568 8.028034497329429 0 0 0
50 2 -0.6923142420418872 14.682056658895274 0.05355294743067054 -1 -1 0
51 3 -0.6824444529945172 14.796535524102486 3.2089648928532606 -1 -1 0
303 6 0.7668703173694402 16.230840903933995 9.605056504604322 0 0 0
302 5 0.8668419287943498 16.367958706010896 6.335516861699292 0 0 0
333 6 3.9918953038382967 17.436735094356035 9.624084210171963 0 0 0
46 1 -0.4275105674418242 12.918865585087062 1.5244538719385383 -1 -1 0